 DBCSR| CPU Multiplication driver                                           BLAS (U)
 DBCSR| Multrec recursion limit                                              512 (U)
 DBCSR| Multiplication stack size                                           1000 (D)
 DBCSR| Maximum elements for images                                    UNLIMITED (U)
 DBCSR| Multiplicative factor virtual images                                   1 (U)
 DBCSR| Use multiplication densification                                       T (D)
 DBCSR| Multiplication size stacks                                             3 (U)
 DBCSR| Use memory pool for CPU allocation                                     F (U)
 DBCSR| Number of 3D layers                                               SINGLE (U)
 DBCSR| Use MPI memory allocation                                              F (U)
 DBCSR| Use RMA algorithm                                                      F (U)
 DBCSR| Use Communication thread                                               T (U)
 DBCSR| Communication thread load                                             75 (D)
 DBCSR| MPI: My process id                                                     0
 DBCSR| MPI: Number of processes                                              24
 DBCSR| OMP: Current number of threads                                         4
 DBCSR| OMP: Max number of threads                                             4
 DBCSR| Split modifier for TAS multiplication algorithm                  1.0E+00 (U)


  **** **** ******  **  PROGRAM STARTED AT               2025-03-09 23:24:35.555
 ***** ** ***  *** **   PROGRAM STARTED ON                          i01r06c05s09
 **    ****   ******    PROGRAM STARTED BY                               di38fab
 ***** **    ** ** **   PROGRAM PROCESS ID                               2457809
  **** **  *******  **  PROGRAM STARTED IN /hppfs/scratch/04/di38fab/05_MOL/W4-1
                                           1+ALK/b2/aug-cc-pVDZ

 CP2K| version string:                 CP2K version 2025.1 (Development Version)
 CP2K| source code revision number:                                  git:47877ba
 CP2K| cp2kflags: omp libint fftw3 libxc parallel scalapack max_contr=4         
 CP2K| is freely available from                            https://www.cp2k.org/
 CP2K| Program compiled at                          Thu Feb 20 16:00:34 CET 2025
 CP2K| Program compiled on                                               login04
 CP2K| Program compiled for                                        Supermuc-foss
 CP2K| Data directory path          /hppfs/work/pn36zo/di38fab/newcp2k/cp2k/data
 CP2K| Input file name                                                    GW.inp

 GLOBAL| Force Environment number                                              1
 GLOBAL| Basis set file name            /hppfs/scratch/04/di38fab/04_TMD/BASIS_A
 GLOBAL| Potential file name            /hppfs/work/pn36zo/di38fab/cp2k/data/ALL
 GLOBAL| MM Potential file name                                     MM_POTENTIAL
 GLOBAL| Coordinate file name                                      __STD_INPUT__
 GLOBAL| Method name                                                        CP2K
 GLOBAL| Project name                                                       MoS2
 GLOBAL| Run type                                                         ENERGY
 GLOBAL| FFT library                                                       FFTW3
 GLOBAL| Diagonalization library                                       ScaLAPACK
 GLOBAL| DGEMM library                                                      BLAS
 GLOBAL| Orthonormality check for eigenvectors                          DISABLED
 GLOBAL| Matrix multiplication library                                 ScaLAPACK
 GLOBAL| All-to-all communication in single precision                          F
 GLOBAL| FFTs using library dependent lengths                                  F
 GLOBAL| Grid backend                                                       AUTO
 GLOBAL| Global print level                                               MEDIUM
 GLOBAL| MPI I/O enabled                                                       T
 GLOBAL| Total number of message passing processes                            24
 GLOBAL| Number of threads for this process                                    4
 GLOBAL| This output is from process                                           0
 GLOBAL| OpenMP stack size per thread (OMP_STACKSIZE)                    default
 GLOBAL| CPU model name             Intel(R) Xeon(R) Platinum 8174 CPU @ 3.10GHz

 MEMORY| system memory details [Kb]
 MEMORY|                        rank 0           min           max       average
 MEMORY| MemTotal             98436664      98436664      98436664      98436664
 MEMORY| MemFree              83983440      83878956      83983440      83931198
 MEMORY| Buffers                     0             0             0             0
 MEMORY| Cached                2422232       2407096       2422232       2414664
 MEMORY| Slab                  1222572       1222260       1222572       1222416
 MEMORY| SReclaimable           266860        266860        268452        267656
 MEMORY| MemLikelyFree        86672532      86554504      86672532      86613518


 *** Fundamental physical constants (SI units) ***

 *** Literature: B. J. Mohr and B. N. Taylor,
 ***             CODATA recommended values of the fundamental physical
 ***             constants: 2006, Web Version 5.1
 ***             http://physics.nist.gov/constants

 Speed of light in vacuum [m/s]                             2.99792458000000E+08
 Magnetic constant or permeability of vacuum [N/A**2]       1.25663706143592E-06
 Electric constant or permittivity of vacuum [F/m]          8.85418781762039E-12
 Planck constant (h) [J*s]                                  6.62606896000000E-34
 Planck constant (h-bar) [J*s]                              1.05457162825177E-34
 Elementary charge [C]                                      1.60217648700000E-19
 Electron mass [kg]                                         9.10938215000000E-31
 Electron g factor [ ]                                     -2.00231930436220E+00
 Proton mass [kg]                                           1.67262163700000E-27
 Fine-structure constant                                    7.29735253760000E-03
 Rydberg constant [1/m]                                     1.09737315685270E+07
 Avogadro constant [1/mol]                                  6.02214179000000E+23
 Boltzmann constant [J/K]                                   1.38065040000000E-23
 Atomic mass unit [kg]                                      1.66053878200000E-27
 Bohr radius [m]                                            5.29177208590000E-11

 *** Conversion factors ***

 [u] -> [a.u.]                                              1.82288848426455E+03
 [Angstrom] -> [Bohr] = [a.u.]                              1.88972613288564E+00
 [a.u.] = [Bohr] -> [Angstrom]                              5.29177208590000E-01
 [a.u.] -> [s]                                              2.41888432650478E-17
 [a.u.] -> [fs]                                             2.41888432650478E-02
 [a.u.] -> [J]                                              4.35974393937059E-18
 [a.u.] -> [N]                                              8.23872205491840E-08
 [a.u.] -> [K]                                              3.15774647902944E+05
 [a.u.] -> [kJ/mol]                                         2.62549961709828E+03
 [a.u.] -> [kcal/mol]                                       6.27509468713739E+02
 [a.u.] -> [Pa]                                             2.94210107994716E+13
 [a.u.] -> [bar]                                            2.94210107994716E+08
 [a.u.] -> [atm]                                            2.90362800883016E+08
 [a.u.] -> [eV]                                             2.72113838565563E+01
 [a.u.] -> [Hz]                                             6.57968392072181E+15
 [a.u.] -> [1/cm] (wave numbers)                            2.19474631370540E+05
 [a.u./Bohr**2] -> [1/cm]                                   5.14048714338585E+03
 

 CELL_TOP| Volume [angstrom^3]:                                     27000.000000
 CELL_TOP| Vector a [angstrom    30.000     0.000     0.000   |a| =    30.000000
 CELL_TOP| Vector b [angstrom     0.000    30.000     0.000   |b| =    30.000000
 CELL_TOP| Vector c [angstrom     0.000     0.000    30.000   |c| =    30.000000
 CELL_TOP| Angle (b,c), alpha [degree]:                                90.000000
 CELL_TOP| Angle (a,c), beta  [degree]:                                90.000000
 CELL_TOP| Angle (a,b), gamma [degree]:                                90.000000
 CELL_TOP| Numerically orthorhombic:                                         YES
 CELL_TOP| Periodicity                                                      NONE

 GENERATE|  Preliminary Number of Bonds generated:                             0
 GENERATE|  Achieved consistency in connectivity generation.

 CELL| Volume [angstrom^3]:                                         27000.000000
 CELL| Vector a [angstrom]:      30.000     0.000     0.000   |a| =    30.000000
 CELL| Vector b [angstrom]:       0.000    30.000     0.000   |b| =    30.000000
 CELL| Vector c [angstrom]:       0.000     0.000    30.000   |c| =    30.000000
 CELL| Angle (b,c), alpha [degree]:                                    90.000000
 CELL| Angle (a,c), beta  [degree]:                                    90.000000
 CELL| Angle (a,b), gamma [degree]:                                    90.000000
 CELL| Numerically orthorhombic:                                             YES
 CELL| Periodicity                                                          NONE

 CELL_REF| Volume [angstrom^3]:                                     27000.000000
 CELL_REF| Vector a [angstrom    30.000     0.000     0.000   |a| =    30.000000
 CELL_REF| Vector b [angstrom     0.000    30.000     0.000   |b| =    30.000000
 CELL_REF| Vector c [angstrom     0.000     0.000    30.000   |c| =    30.000000
 CELL_REF| Angle (b,c), alpha [degree]:                                90.000000
 CELL_REF| Angle (a,c), beta  [degree]:                                90.000000
 CELL_REF| Angle (a,b), gamma [degree]:                                90.000000
 CELL_REF| Numerically orthorhombic:                                         YES
 CELL_REF| Periodicity                                                      NONE

 *******************************************************************************
 *******************************************************************************
 **                                                                           **
 **     #####                         ##              ##                      **
 **    ##   ##            ##          ##              ##                      **
 **   ##     ##                       ##            ######                    **
 **   ##     ##  ##   ##  ##   #####  ##  ##   ####   ##    #####    #####    **
 **   ##     ##  ##   ##  ##  ##      ## ##   ##      ##   ##   ##  ##   ##   **
 **   ##  ## ##  ##   ##  ##  ##      ####     ###    ##   ######   ######    **
 **    ##  ###   ##   ##  ##  ##      ## ##      ##   ##   ##       ##        **
 **     #######   #####   ##   #####  ##  ##  ####    ##    #####   ##        **
 **           ##                                                    ##        **
 **                                                                           **
 **                                                ... make the atoms dance   **
 **                                                                           **
 **            Copyright (C) by CP2K developers group (2000-2025)             **
 **                      J. Chem. Phys. 152, 194103 (2020)                    **
 **                                                                           **
 *******************************************************************************

 DFT| Spin restricted Kohn-Sham (RKS) calculation                            RKS
 DFT| Multiplicity                                                             1
 DFT| Number of spin states                                                    1
 DFT| Charge                                                                   0
 DFT| Self-interaction correction (SIC)                                       NO
 DFT| Cutoffs: density                                              1.000000E-10
 DFT|          gradient                                             1.000000E-10
 DFT|          tau                                                  1.000000E-10
 DFT|          cutoff_smoothing_range                               0.000000E+00
 DFT| XC density smoothing                                                  NONE
 DFT| XC derivatives                                                          PW

 FUNCTIONAL| PBE:
 FUNCTIONAL| J.P.Perdew, K.Burke, M.Ernzerhof, Phys. Rev. Letter, vol. 77, n 18,
 FUNCTIONAL|  pp. 3865-3868, (1996)sx=0.750sc=1.000{spin unpolarized}           


 QS| Method:                                                                GAPW
 QS| Density plane wave grid type                        NON-SPHERICAL FULLSPACE
 QS| Number of grid levels:                                                    4
 QS| Density cutoff [a.u.]:                                                250.0
 QS| Multi grid cutoff [a.u.]: 1) grid level                               250.0
 QS|                           2) grid level                                83.3
 QS|                           3) grid level                                27.8
 QS|                           4) grid level                                 9.3
 QS| Grid level progression factor:                                          3.0
 QS| Relative density cutoff [a.u.]:                                        50.0
 QS| Interaction thresholds: eps_pgf_orb:                                1.0E-12
 QS|                         eps_filter_matrix:                          0.0E+00
 QS|                         eps_core_charge:                            1.0E-14
 QS|                         eps_rho_gspace:                             1.0E-12
 QS|                         eps_rho_rspace:                             1.0E-12
 QS|                         eps_gvg_rspace:                             1.0E-06
 QS|                         eps_ppl:                                    1.0E-02
 QS|                         eps_ppnl:                                   1.0E-08
 QS| GAPW|      One center basis from orbital basis primitives
 QS| GAPW|                   eps_fit:                                    1.0E-04
 QS| GAPW|                   eps_iso:                                    1.0E-12
 QS| GAPW|                   eps_svd:                                    1.0E-08
 QS| GAPW|                   eps_cpc:                                    1.0E-12
 QS| GAPW|   atom-r-grid: quadrature:                                     GC_LOG
 QS| GAPW|      atom-s-grid:  max l :                                          4
 QS| GAPW|      max_l_rho0 :                                                   2


 ATOMIC KIND INFORMATION

  1. Atomic kind: B                                     Number of atoms:       2

     Orbital Basis Set                                               aug-cc-pVDZ

       Number of orbital shell sets:                                           6
       Number of orbital shells:                                               9
       Number of primitive Cartesian functions:                               17
       Number of Cartesian basis functions:                                   25
       Number of spherical basis functions:                                   23
       Norm type:                                                              2

       Normalised Cartesian orbitals:

                        Set   Shell   Orbital            Exponent    Coefficient

                          1       1    1px               0.023780       0.013311
                          1       1    1py               0.023780       0.013311
                          1       1    1pz               0.023780       0.013311

                          2       1    1s                0.031050       0.052718

                          3       1    1dx2              0.090400       0.024530
                          3       1    1dxy              0.090400       0.042488
                          3       1    1dxz              0.090400       0.042488
                          3       1    1dy2              0.090400       0.024530
                          3       1    1dyz              0.090400       0.042488
                          3       1    1dz2              0.090400       0.024530

                          4       1    1px               6.001000       0.475024
                                                         1.241000       0.369809
                                                         0.336400       0.184501
                                                         0.095380       0.036228
                          4       1    1py               6.001000       0.475024
                                                         1.241000       0.369809
                                                         0.336400       0.184501
                                                         0.095380       0.036228
                          4       1    1pz               6.001000       0.475024
                                                         1.241000       0.369809
                                                         0.336400       0.184501
                                                         0.095380       0.036228

                          4       2    2px               6.001000       0.000000
                                                         1.241000       0.000000
                                                         0.336400       0.000000
                                                         0.095380       0.075555
                          4       2    2py               6.001000       0.000000
                                                         1.241000       0.000000
                                                         0.336400       0.000000
                                                         0.095380       0.075555
                          4       2    2pz               6.001000       0.000000
                                                         1.241000       0.000000
                                                         0.336400       0.000000
                                                         0.095380       0.075555

                          5       1    1s             4570.000000       0.275713
                                                       685.900000       0.511332
                                                       156.500000       0.855677
                                                        44.470000       1.244265
                                                        14.480000       1.439274
                                                         5.131000       1.089508
                                                         1.898000       0.334360
                                                         0.332900       0.004474
                                                         0.104300      -0.000456

                          5       2    2s             4570.000000      -0.055063
                                                       685.900000      -0.104788
                                                       156.500000      -0.171678
                                                        44.470000      -0.268981
                                                        14.480000      -0.316105
                                                         5.131000      -0.337084
                                                         1.898000      -0.151530
                                                         0.332900       0.168522
                                                         0.104300       0.075968

                          5       3    3s             4570.000000       0.000000
                                                       685.900000       0.000000
                                                       156.500000       0.000000
                                                        44.470000       0.000000
                                                        14.480000       0.000000
                                                         5.131000       0.000000
                                                         1.898000       0.000000
                                                         0.332900       0.000000
                                                         0.104300       0.130805

                          6       1    1dx2              0.343000       0.253031
                          6       1    1dxy              0.343000       0.438263
                          6       1    1dxz              0.343000       0.438263
                          6       1    1dy2              0.343000       0.253031
                          6       1    1dyz              0.343000       0.438263
                          6       1    1dz2              0.343000       0.253031

     RI Auxiliary Basis Set                                    aug-cc-pVDZ-OPTRI

       Number of orbital shell sets:                                          17
       Number of orbital shells:                                              17
       Number of primitive Cartesian functions:                               17
       Number of Cartesian basis functions:                                   88
       Number of spherical basis functions:                                   69
       Norm type:                                                              2

       Normalised Cartesian orbitals:

                        Set   Shell   Orbital            Exponent    Coefficient

                          1       1    1px               0.050296       0.033951
                          1       1    1py               0.050296       0.033951
                          1       1    1pz               0.050296       0.033951

                          2       1    1s                0.056572       0.082673

                          3       1    1px               0.150012       0.133075
                          3       1    1py               0.150012       0.133075
                          3       1    1pz               0.150012       0.133075

                          4       1    1fx3              0.199135       0.038997
                          4       1    1fx2y             0.199135       0.087201
                          4       1    1fx2z             0.199135       0.087201
                          4       1    1fxy2             0.199135       0.087201
                          4       1    1fxyz             0.199135       0.151037
                          4       1    1fxz2             0.199135       0.087201
                          4       1    1fy3              0.199135       0.038997
                          4       1    1fy2z             0.199135       0.087201
                          4       1    1fyz2             0.199135       0.087201
                          4       1    1fz3              0.199135       0.038997

                          5       1    1dx2              0.228104       0.123920
                          5       1    1dxy              0.228104       0.214636
                          5       1    1dxz              0.228104       0.214636
                          5       1    1dy2              0.228104       0.123920
                          5       1    1dyz              0.228104       0.214636
                          5       1    1dz2              0.228104       0.123920

                          6       1    1s                0.309008       0.295384

                          7       1    1px               0.312340       0.332832
                          7       1    1py               0.312340       0.332832
                          7       1    1pz               0.312340       0.332832

                          8       1    1dx2              0.523825       0.530867
                          8       1    1dxy              0.523825       0.919488
                          8       1    1dxz              0.523825       0.919488
                          8       1    1dy2              0.523825       0.530867
                          8       1    1dyz              0.523825       0.919488
                          8       1    1dz2              0.523825       0.530867

                          9       1    1fx3              0.580150       0.432434
                          9       1    1fx2y             0.580150       0.966952
                          9       1    1fx2z             0.580150       0.966952
                          9       1    1fxy2             0.580150       0.966952
                          9       1    1fxyz             0.580150       1.674811
                          9       1    1fxz2             0.580150       0.966952
                          9       1    1fy3              0.580150       0.432434
                          9       1    1fy2z             0.580150       0.966952
                          9       1    1fyz2             0.580150       0.966952
                          9       1    1fz3              0.580150       0.432434

                         10       1    1gx4              0.624505       0.304901
                         10       1    1gx3y             0.624505       0.806693
                         10       1    1gx3z             0.624505       0.806693
                         10       1    1gx2y2            0.624505       1.041436
                         10       1    1gx2yz            0.624505       1.803820
                         10       1    1gx2z2            0.624505       1.041436
                         10       1    1gxy3             0.624505       0.806693
                         10       1    1gxy2z            0.624505       1.803820
                         10       1    1gxyz2            0.624505       1.803820
                         10       1    1gxz3             0.624505       0.806693
                         10       1    1gy4              0.624505       0.304901
                         10       1    1gy3z             0.624505       0.806693
                         10       1    1gy2z2            0.624505       1.041436
                         10       1    1gyz3             0.624505       0.806693
                         10       1    1gz4              0.624505       0.304901

                         11       1    1px               0.650325       0.832440
                         11       1    1py               0.650325       0.832440
                         11       1    1pz               0.650325       0.832440

                         12       1    1s                1.138224       0.785382

                         13       1    1px               1.354044       2.082002
                         13       1    1py               1.354044       2.082002
                         13       1    1pz               1.354044       2.082002

                         14       1    1dx2              1.406891       2.991336
                         14       1    1dxy              1.406891       5.181147
                         14       1    1dxz              1.406891       5.181147
                         14       1    1dy2              1.406891       2.991336
                         14       1    1dyz              1.406891       5.181147
                         14       1    1dz2              1.406891       2.991336

                         15       1    1fx3              1.679928       4.729971
                         15       1    1fx2y             1.679928      10.576536
                         15       1    1fx2z             1.679928      10.576536
                         15       1    1fxy2             1.679928      10.576536
                         15       1    1fxyz             1.679928      18.319098
                         15       1    1fxz2             1.679928      10.576536
                         15       1    1fy3              1.679928       4.729971
                         15       1    1fy2z             1.679928      10.576536
                         15       1    1fyz2             1.679928      10.576536
                         15       1    1fz3              1.679928       4.729971

                         16       1    1dx2              3.778629      16.855607
                         16       1    1dxy              3.778629      29.194768
                         16       1    1dxz              3.778629      29.194768
                         16       1    1dy2              3.778629      16.855607
                         16       1    1dyz              3.778629      29.194768
                         16       1    1dz2              3.778629      16.855607

                         17       1    1s                4.192619       2.088210

       Atomic covalent radius [Angstrom]:                                  0.820

       Atomic van der Waals radius [Angstrom]:                             1.920

     The atoms of this atomic kind are PAW atoms (GAPW):
       Hard Gaussian function radius:                                      1.512
       Rho0 radius:                                                        1.512
       Maximum GTO radius used for PAW projector construction:            24.566

     GAPW Soft Basis Set                                        aug-cc-pVDZ_soft

       Number of orbital shell sets:                                           6
       Number of orbital shells:                                               9
       Number of primitive Cartesian functions:                               10
       Number of Cartesian basis functions:                                   25
       Number of spherical basis functions:                                   23
       Norm type:                                                              2

       Normalised Cartesian orbitals:

                        Set   Shell   Orbital            Exponent    Coefficient

                          1       1    1px               0.023780       0.013311
                          1       1    1py               0.023780       0.013311
                          1       1    1pz               0.023780       0.013311

                          2       1    1s                0.031050       0.052718

                          3       1    1dx2              0.090400       0.024530
                          3       1    1dxy              0.090400       0.042488
                          3       1    1dxz              0.090400       0.042488
                          3       1    1dy2              0.090400       0.024530
                          3       1    1dyz              0.090400       0.042488
                          3       1    1dz2              0.090400       0.024530

                          4       1    1px               1.241000       0.369809
                                                         0.336400       0.184501
                                                         0.095380       0.036228
                          4       1    1py               1.241000       0.369809
                                                         0.336400       0.184501
                                                         0.095380       0.036228
                          4       1    1pz               1.241000       0.369809
                                                         0.336400       0.184501
                                                         0.095380       0.036228

                          4       2    2px               1.241000       0.000000
                                                         0.336400       0.000000
                                                         0.095380       0.075555
                          4       2    2py               1.241000       0.000000
                                                         0.336400       0.000000
                                                         0.095380       0.075555
                          4       2    2pz               1.241000       0.000000
                                                         0.336400       0.000000
                                                         0.095380       0.075555

                          5       1    1s                1.898000       0.334360
                                                         0.332900       0.004474
                                                         0.104300      -0.000456

                          5       2    2s                1.898000      -0.151530
                                                         0.332900       0.168522
                                                         0.104300       0.075968

                          5       3    3s                1.898000       0.000000
                                                         0.332900       0.000000
                                                         0.104300       0.130805

                          6       1    1dx2              0.343000       0.253031
                          6       1    1dxy              0.343000       0.438263
                          6       1    1dxz              0.343000       0.438263
                          6       1    1dy2              0.343000       0.253031
                          6       1    1dyz              0.343000       0.438263
                          6       1    1dz2              0.343000       0.253031

     AE Potential information for                                            ALL

       Description:                                       All-electron potential
                                          Krack, Parrinello, PCCP 2, 2105 (2000)

       Gaussian exponent of the core charge distribution:               2.655410
       Electronic configuration (s p d ...):                           4   1   0


 MOLECULE KIND INFORMATION


 All atoms are their own molecule, skipping detailed information


 TOTAL NUMBERS AND MAXIMUM NUMBERS

  Total number of            - Atomic kinds:                                   1
                             - Atoms:                                          2
                             - Shell sets:                                    12
                             - Shells:                                        18
                             - Primitive Cartesian functions:                 34
                             - Cartesian basis functions:                     50
                             - Spherical basis functions:                     46

  Maximum angular momentum of the orbital basis functions:                     2


 MODULE QUICKSTEP: ATOMIC COORDINATES IN ANGSTROM

   Atom Kind Element         X             Y             Z       Z(eff)     Mass
      1    1 B     5     15.793777     15.000000     15.000000   5.0000  10.8110
      2    1 B     5     14.206223     15.000000     15.000000   5.0000  10.8110



 SCF PARAMETERS         Density guess:                                    ATOMIC
                        --------------------------------------------------------
                        max_scf:                                             500
                        max_scf_history:                                       0
                        max_diis:                                              4
                        --------------------------------------------------------
                        eps_scf:                                        1.00E-06
                        eps_scf_history:                                0.00E+00
                        eps_diis:                                       1.00E-01
                        eps_eigval:                                     1.00E-05
                        --------------------------------------------------------
                        level_shift [a.u.]:                             0.000000
                        added MOs                                        41    0
                        --------------------------------------------------------
                        Mixing method:                            BROYDEN_MIXING
                                                charge density mixing in g-space
                        --------------------------------------------------------
                        No outer SCF

 PW_GRID| Information for grid number                                          1
 PW_GRID| Grid distributed over                                    24 processors
 PW_GRID| Real space group dimensions                                    24    1
 PW_GRID| the grid is blocked:                                                NO
 PW_GRID| Cutoff [a.u.]                                                    250.0
 PW_GRID| spherical cutoff:                                                   NO
 PW_GRID|   Bounds   1           -202     202                Points:         405
 PW_GRID|   Bounds   2           -202     202                Points:         405
 PW_GRID|   Bounds   3           -202     202                Points:         405
 PW_GRID| Volume element (a.u.^3)  0.2743E-02     Volume (a.u.^3)    182205.0337
 PW_GRID| Grid span                                                    FULLSPACE
 PW_GRID|   Distribution                         Average         Max         Min
 PW_GRID|   G-Vectors                          2767921.9     2768175     2767770
 PW_GRID|   G-Rays                                6834.4        6835        6834
 PW_GRID|   Real Space Points                  2767921.9     2788425     2624400

 PW_GRID| Information for grid number                                          2
 PW_GRID| Number of the reference grid                                         1
 PW_GRID| Grid distributed over                                    24 processors
 PW_GRID| Real space group dimensions                                    24    1
 PW_GRID| the grid is blocked:                                                NO
 PW_GRID| Cutoff [a.u.]                                                     83.3
 PW_GRID| spherical cutoff:                                                   NO
 PW_GRID|   Bounds   1           -120     119                Points:         240
 PW_GRID|   Bounds   2           -120     119                Points:         240
 PW_GRID|   Bounds   3           -120     119                Points:         240
 PW_GRID| Volume element (a.u.^3)  0.1318E-01     Volume (a.u.^3)    182205.0337
 PW_GRID| Grid span                                                    FULLSPACE
 PW_GRID|   Distribution                         Average         Max         Min
 PW_GRID|   G-Vectors                           576000.0      576240      575760
 PW_GRID|   G-Rays                                2400.0        2401        2399
 PW_GRID|   Real Space Points                   576000.0      576000      576000

 PW_GRID| Information for grid number                                          3
 PW_GRID| Number of the reference grid                                         1
 PW_GRID| Grid distributed over                                    24 processors
 PW_GRID| Real space group dimensions                                    24    1
 PW_GRID| the grid is blocked:                                                NO
 PW_GRID| Cutoff [a.u.]                                                     27.8
 PW_GRID| spherical cutoff:                                                   NO
 PW_GRID|   Bounds   1            -67      67                Points:         135
 PW_GRID|   Bounds   2            -67      67                Points:         135
 PW_GRID|   Bounds   3            -67      67                Points:         135
 PW_GRID| Volume element (a.u.^3)  0.7406E-01     Volume (a.u.^3)    182205.0337
 PW_GRID| Grid span                                                    FULLSPACE
 PW_GRID|   Distribution                         Average         Max         Min
 PW_GRID|   G-Vectors                           102515.6      102735      102330
 PW_GRID|   G-Rays                                 759.4         761         758
 PW_GRID|   Real Space Points                   102515.6      109350       91125

 PW_GRID| Information for grid number                                          4
 PW_GRID| Number of the reference grid                                         1
 PW_GRID| Grid distributed over                                    24 processors
 PW_GRID| Real space group dimensions                                    24    1
 PW_GRID| the grid is blocked:                                                NO
 PW_GRID| Cutoff [a.u.]                                                      9.3
 PW_GRID| spherical cutoff:                                                   NO
 PW_GRID|   Bounds   1            -40      39                Points:          80
 PW_GRID|   Bounds   2            -40      39                Points:          80
 PW_GRID|   Bounds   3            -40      39                Points:          80
 PW_GRID| Volume element (a.u.^3)  0.3559         Volume (a.u.^3)    182205.0337
 PW_GRID| Grid span                                                    FULLSPACE
 PW_GRID|   Distribution                         Average         Max         Min
 PW_GRID|   G-Vectors                            21333.3       21360       21280
 PW_GRID|   G-Rays                                 266.7         267         266
 PW_GRID|   Real Space Points                    21333.3       25600       19200

 POISSON| Solver                                                         WAVELET
 POISSON| Wavelet| Scaling function                                           40
 POISSON| Periodicity                                                       NONE

 RS_GRID| Information for grid number                                          1
 RS_GRID|   Bounds   1           -202     202                Points:         405
 RS_GRID|   Bounds   2           -202     202                Points:         405
 RS_GRID|   Bounds   3           -202     202                Points:         405
 RS_GRID| Real space distribution over                                  4 groups
 RS_GRID| Real space distribution along direction                              2
 RS_GRID| Border size                                                         33
 RS_GRID| Real space distribution over                                  6 groups
 RS_GRID| Real space distribution along direction                              3
 RS_GRID| Border size                                                         33
 RS_GRID|   Distribution                         Average         Max         Min
 RS_GRID|   Planes                                 167.2         168         167
 RS_GRID|   Distribution                         Average         Max         Min
 RS_GRID|   Planes                                 133.5         134         133

 RS_GRID| Information for grid number                                          2
 RS_GRID|   Bounds   1           -120     119                Points:         240
 RS_GRID|   Bounds   2           -120     119                Points:         240
 RS_GRID|   Bounds   3           -120     119                Points:         240
 RS_GRID| Real space distribution over                                  4 groups
 RS_GRID| Real space distribution along direction                              2
 RS_GRID| Border size                                                         34
 RS_GRID| Real space distribution over                                  6 groups
 RS_GRID| Real space distribution along direction                              3
 RS_GRID| Border size                                                         34
 RS_GRID|   Distribution                         Average         Max         Min
 RS_GRID|   Planes                                 128.0         128         128
 RS_GRID|   Distribution                         Average         Max         Min
 RS_GRID|   Planes                                 108.0         108         108

 RS_GRID| Information for grid number                                          3
 RS_GRID|   Bounds   1            -67      67                Points:         135
 RS_GRID|   Bounds   2            -67      67                Points:         135
 RS_GRID|   Bounds   3            -67      67                Points:         135
 RS_GRID| Real space fully replicated
 RS_GRID| Group size                                                           1

 RS_GRID| Information for grid number                                          4
 RS_GRID|   Bounds   1            -40      39                Points:          80
 RS_GRID|   Bounds   2            -40      39                Points:          80
 RS_GRID|   Bounds   3            -40      39                Points:          80
 RS_GRID| Real space fully replicated
 RS_GRID| Group size                                                           1

  HFX_INFO| Replica ID:                                                        1
  HFX_INFO| FRACTION:                                               0.2500000000
  HFX_INFO| Interaction Potential:                                       COULOMB
  HFX_INFO| EPS_SCHWARZ:                                                 1.0E-10
  HFX_INFO| EPS_SCHWARZ_FORCES                                           1.0E-08
  HFX_INFO| EPS_STORAGE_SCALING:                                         1.0E+00
  HFX_INFO| NBINS:                                                            64
  HFX_INFO| BLOCK_SIZE:                                                        1
  HFX_INFO| Number of periodic shells considered:                           NONE
  HFX_INFO| Number of periodic cells considered:                            NONE

 
 RI-RPA| using GPW style
 

 OVERLAP MATRIX CONDITION NUMBER
 1-Norm Condition Number (Estimate)
   CN : |A|*|A^-1|:  6.959E+000 *  4.638E+003   = 3.227E+004  Log(1-CN):  4.5089
 1-Norm and 2-Norm Condition Numbers using Diagonalization
   CN : |A|*|A^-1|:  6.959E+000 *  4.638E+003   = 3.227E+004  Log(1-CN):  4.5089
   CN : max/min ev:  4.971E+000 /  3.218E-004   = 1.544E+004  Log(2-CN):  4.1888

 Number of electrons:                                                         10
 Number of occupied orbitals:                                                  5
 Number of molecular orbitals:                                                46

 Number of orbital functions:                                                 46
 Number of independent orbital functions:                                     46

 Extrapolation method: initial_guess

 Atomic guess: The first density matrix is obtained in terms of atomic orbitals
               and electronic configurations assigned to each atomic kind

 Guess for atomic kind: B

 Electronic structure
    Total number of core electrons                                          0.00
    Total number of valence electrons                                       5.00
    Total number of electrons                                               5.00
    Multiplicity                                                   not specified
    S      2.00  2.00
    P      1.00


 *******************************************************************************
                  Iteration          Convergence                     Energy [au]
 *******************************************************************************
                          1        0.460359E-01                 -24.334985930574
                          2        0.205214E-01                 -24.337140561715
                          3        0.117435E-02                 -24.337989566848
                          4        0.175895E-04                 -24.337991674331
                          5        0.596531E-07                 -24.337991674739

 Energy components [Hartree]           Total Energy ::          -24.337991674739
                                        Band Energy ::          -13.931958661609
                                     Kinetic Energy ::           24.427852794124
                                   Potential Energy ::          -48.765844468863
                                      Virial (-V/T) ::            1.996321366428
                                        Core Energy ::          -32.323145461531
                                          XC Energy ::           -3.540020579852
                                     Coulomb Energy ::           11.525174366644

 Orbital energies  State     L     Occupation   Energy[a.u.]          Energy[eV]

                       1     0          2.000      -6.552602         -178.305360
                       2     0          2.000      -0.345371           -9.398013

                       1     1          1.000      -0.136014           -3.701130


 Total Electron Density at R=0:                                        68.786961
 Re-scaling the density matrix to get the right number of electrons
                  # Electrons              Trace(P)               Scaling factor
                           10                10.000                        1.000


 SCF WAVEFUNCTION OPTIMIZATION

  Step     Update method      Time    Convergence         Total energy    Change
  ------------------------------------------------------------------------------

  HFX_MEM_INFO| Est. max. program size before HFX [MiB]:                    2135
  HFX_MEM_INFO| Number of cart. primitive ERI's calculated:             10823657
  HFX_MEM_INFO| Number of sph. ERI's calculated:                         1679046
  HFX_MEM_INFO| Number of sph. ERI's stored in-core:                     1679046
  HFX_MEM_INFO| Number of sph. ERI's stored on disk:                           0
  HFX_MEM_INFO| Number of sph. ERI's calculated on the fly:                    0
  HFX_MEM_INFO| Total memory consumption ERI's RAM [MiB]:                      7
  HFX_MEM_INFO| Whereof max-vals [MiB]:                                        1
  HFX_MEM_INFO| Total compression factor ERI's RAM:                         2.05
  HFX_MEM_INFO| Total memory consumption ERI's disk [MiB]:                     0
  HFX_MEM_INFO| Total compression factor ERI's disk:                        0.00
  HFX_MEM_INFO| Size of density/Fock matrix [MiB]:                             0
  HFX_MEM_INFO| Size of buffers [MiB]:                                         0
  HFX_MEM_INFO| Est. max. program size after HFX  [MiB]:                    2643

     1 NoMix/Diag. 0.10E+00    6.4     0.77150428       -49.4535962470 -4.95E+01
     2 Broy./Diag. 0.10E+00    4.7     0.06183938       -49.1238454104  3.30E-01
     3 Broy./Diag. 0.10E+00    4.9     0.02647546       -49.0160390895  1.08E-01
     4 Broy./Diag. 0.10E+00    4.8     0.08643355       -49.0634595674 -4.74E-02
     5 Broy./Diag. 0.10E+00    4.8     0.01808018       -49.1870237744 -1.24E-01
     6 Broy./Diag. 0.10E+00    5.0     0.01529521       -49.2451208882 -5.81E-02
     7 Broy./Diag. 0.10E+00    5.0     0.00560344       -49.2907434398 -4.56E-02
     8 Broy./Diag. 0.10E+00    5.5     0.00133846       -49.3003192529 -9.58E-03
     9 Broy./Diag. 0.10E+00    5.5     0.01083667       -49.2925233085  7.80E-03
    10 Broy./Diag. 0.10E+00    5.5     0.00263048       -49.2875915001  4.93E-03
    11 Broy./Diag. 0.10E+00    5.4     0.00327034       -49.2838743304  3.72E-03
    12 Broy./Diag. 0.10E+00    5.5     0.00281180       -49.2868409355 -2.97E-03
    13 Broy./Diag. 0.10E+00    5.4     0.00108198       -49.2916633305 -4.82E-03
    14 Broy./Diag. 0.10E+00    5.4     0.00651127       -49.2924730957 -8.10E-04
    15 Broy./Diag. 0.10E+00    5.5     0.00280412       -49.2948592389 -2.39E-03
    16 Broy./Diag. 0.10E+00    5.5     0.00113684       -49.2965107205 -1.65E-03
    17 Broy./Diag. 0.10E+00    5.6     0.00368641       -49.2964430923  6.76E-05
    18 Broy./Diag. 0.10E+00    5.4     0.00067434       -49.2956235491  8.20E-04
    19 Broy./Diag. 0.10E+00    5.4     0.00027907       -49.2948830418  7.41E-04
    20 Broy./Diag. 0.10E+00    5.3     0.00157474       -49.2946767865  2.06E-04
    21 Broy./Diag. 0.10E+00    5.3     0.00061803       -49.2947142111 -3.74E-05
    22 Broy./Diag. 0.10E+00    5.3     0.00237709       -49.2945833443  1.31E-04
    23 Broy./Diag. 0.10E+00    5.3     0.00295095       -49.2947064128 -1.23E-04
    24 Broy./Diag. 0.10E+00    5.4     0.00055267       -49.2949473113 -2.41E-04
    25 Broy./Diag. 0.10E+00    5.6     0.00039753       -49.2948507097  9.66E-05
    26 Broy./Diag. 0.10E+00    5.6     0.00101640       -49.2946823834  1.68E-04
    27 Broy./Diag. 0.10E+00    5.6     0.00116659       -49.2946350814  4.73E-05
    28 Broy./Diag. 0.10E+00    5.4     0.00013376       -49.2946537985 -1.87E-05
    29 Broy./Diag. 0.10E+00    5.4     0.00004283       -49.2946493917  4.41E-06
    30 Broy./Diag. 0.10E+00    5.5     0.00009047       -49.2946293989  2.00E-05
    31 Broy./Diag. 0.10E+00    5.5     0.00021660       -49.2946506270 -2.12E-05
    32 Broy./Diag. 0.10E+00    5.5     0.00064177       -49.2946498569  7.70E-07
    33 Broy./Diag. 0.10E+00    5.6     0.00037912       -49.2946127657  3.71E-05
    34 Broy./Diag. 0.10E+00    5.4     0.00011360       -49.2945196112  9.32E-05
    35 Broy./Diag. 0.10E+00    5.4     0.00068723       -49.2944509059  6.87E-05
    36 Broy./Diag. 0.10E+00    5.4     0.00008804       -49.2944530315 -2.13E-06
    37 Broy./Diag. 0.10E+00    5.4     0.00006523       -49.2944628353 -9.80E-06
    38 Broy./Diag. 0.10E+00    5.3     0.00024038       -49.2944578866  4.95E-06
    39 Broy./Diag. 0.10E+00    5.6     0.00015177       -49.2944737157 -1.58E-05
    40 Broy./Diag. 0.10E+00    5.6     0.00021311       -49.2944826328 -8.92E-06
    41 Broy./Diag. 0.10E+00    5.6     0.00030859       -49.2944806858  1.95E-06
    42 Broy./Diag. 0.10E+00    5.6     0.00045370       -49.2944826489 -1.96E-06
    43 Broy./Diag. 0.10E+00    5.5     0.00063139       -49.2944998233 -1.72E-05
    44 Broy./Diag. 0.10E+00    5.4     0.00090169       -49.2944989954  8.28E-07
    45 Broy./Diag. 0.10E+00    5.4     0.00130998       -49.2944897953  9.20E-06
    46 Broy./Diag. 0.10E+00    5.4     0.00192750       -49.2944800692  9.73E-06
    47 Broy./Diag. 0.10E+00    5.5     0.00280567       -49.2944767254  3.34E-06
    48 Broy./Diag. 0.10E+00    5.5     0.00409569       -49.2944925203 -1.58E-05
    49 Broy./Diag. 0.10E+00    5.5     0.00594715       -49.2945175859 -2.51E-05
    50 Broy./Diag. 0.10E+00    5.4     0.00863896       -49.2945183749 -7.89E-07
    51 Broy./Diag. 0.10E+00    5.4     0.01254309       -49.2944942907  2.41E-05
    52 Broy./Diag. 0.10E+00    5.3     0.01822701       -49.2944522387  4.21E-05
    53 Broy./Diag. 0.10E+00    5.3     0.02627873       -49.2944112910  4.09E-05
    54 Broy./Diag. 0.10E+00    5.4     0.03733644       -49.2943341474  7.71E-05
    55 Broy./Diag. 0.10E+00    5.3     0.05164773       -49.2941430187  1.91E-04
    56 Broy./Diag. 0.10E+00    5.6     0.06722842       -49.2937871025  3.56E-04
    57 Broy./Diag. 0.10E+00    5.5     0.07803451       -49.2931309218  6.56E-04
    58 Broy./Diag. 0.10E+00    5.5     0.10249658       -49.2918827079  1.25E-03
    59 Broy./Diag. 0.10E+00    5.5     0.13320821       -49.2897139739  2.17E-03
    60 Broy./Diag. 0.10E+00    5.6     0.14110150       -49.2865305284  3.18E-03
    61 Broy./Diag. 0.10E+00    5.5     0.12382316       -49.2826993398  3.83E-03
    62 Broy./Diag. 0.10E+00    5.4     0.09380040       -49.2789956097  3.70E-03
    63 Broy./Diag. 0.10E+00    5.6     0.06557930       -49.2759421276  3.05E-03
    64 Broy./Diag. 0.10E+00    5.4     0.06043139       -49.2735905498  2.35E-03
    65 Broy./Diag. 0.10E+00    5.6     0.05123898       -49.2718834902  1.71E-03
    66 Broy./Diag. 0.10E+00    5.6     0.04144715       -49.2706719114  1.21E-03
    67 Broy./Diag. 0.10E+00    5.6     0.03253011       -49.2697284140  9.43E-04
    68 Broy./Diag. 0.10E+00    5.5     0.02426927       -49.2694086274  3.20E-04
    69 Broy./Diag. 0.10E+00    5.4     0.02380034       -49.2687527841  6.56E-04
    70 Broy./Diag. 0.10E+00    5.4     0.02217905       -49.2723630240 -3.61E-03
    71 Broy./Diag. 0.10E+00    5.4     0.02911689       -49.2727879246 -4.25E-04
    72 Broy./Diag. 0.10E+00    5.5     0.04094814       -49.2732510961 -4.63E-04
    73 Broy./Diag. 0.10E+00    5.4     0.07050862       -49.2769109166 -3.66E-03
    74 Broy./Diag. 0.10E+00    5.3     0.10253374       -49.2942457454 -1.73E-02
    75 Broy./Diag. 0.10E+00    5.4     0.11164629       -49.3374854284 -4.32E-02
    76 Broy./Diag. 0.10E+00    5.5     0.07685886       -49.3372218437  2.64E-04
    77 Broy./Diag. 0.10E+00    5.6     0.17543516       -49.3366258977  5.96E-04
    78 Broy./Diag. 0.10E+00    5.6     0.06995870       -49.3788599025 -4.22E-02
    79 Broy./Diag. 0.10E+00    5.4     0.06281565       -49.3539771478  2.49E-02
    80 Broy./Diag. 0.10E+00    5.4     0.07755793       -49.3544422577 -4.65E-04
    81 Broy./Diag. 0.10E+00    5.5     0.04845264       -49.3712275942 -1.68E-02
    82 Broy./Diag. 0.10E+00    5.6     0.17029691       -49.3257007790  4.55E-02
    83 Broy./Diag. 0.10E+00    5.6     0.13474357       -49.2484771475  7.72E-02
    84 Broy./Diag. 0.10E+00    5.5     0.15307554       -49.2359987895  1.25E-02
    85 Broy./Diag. 0.10E+00    5.5     0.13288942       -49.2216938619  1.43E-02
    86 Broy./Diag. 0.10E+00    5.3     0.14183164       -49.2310077859 -9.31E-03
    87 Broy./Diag. 0.10E+00    5.4     0.06894086       -49.2512875133 -2.03E-02
    88 Broy./Diag. 0.10E+00    5.4     0.07761576       -49.2443427916  6.94E-03
    89 Broy./Diag. 0.10E+00    5.4     0.06304059       -49.2610833352 -1.67E-02
    90 Broy./Diag. 0.10E+00    5.3     0.07826608       -49.2666757921 -5.59E-03
    91 Broy./Diag. 0.10E+00    5.3     0.05079548       -49.2640757863  2.60E-03
    92 Broy./Diag. 0.10E+00    5.3     0.04166975       -49.2536933664  1.04E-02
    93 Broy./Diag. 0.10E+00    5.3     0.04367446       -49.2515073415  2.19E-03
    94 Broy./Diag. 0.10E+00    5.4     0.04135446       -49.2478674463  3.64E-03
    95 Broy./Diag. 0.10E+00    5.5     0.06720987       -49.2432989185  4.57E-03
    96 Broy./Diag. 0.10E+00    5.6     0.05986664       -49.2427199703  5.79E-04
    97 Broy./Diag. 0.10E+00    5.6     0.09995324       -49.2531204766 -1.04E-02
    98 Broy./Diag. 0.10E+00    5.6     0.09486587       -49.2388440215  1.43E-02
    99 Broy./Diag. 0.10E+00    5.6     0.10664162       -49.2339472861  4.90E-03
   100 Broy./Diag. 0.10E+00    5.5     0.09351176       -49.2363586634 -2.41E-03
   101 Broy./Diag. 0.10E+00    5.5     0.12146998       -49.2407122893 -4.35E-03
   102 Broy./Diag. 0.10E+00    5.4     0.10837815       -49.2510456712 -1.03E-02
   103 Broy./Diag. 0.10E+00    5.4     0.12408689       -49.2527131667 -1.67E-03
   104 Broy./Diag. 0.10E+00    5.3     0.11054708       -49.2507584941  1.95E-03
   105 Broy./Diag. 0.10E+00    5.5     0.08598572       -49.2544871240 -3.73E-03
   106 Broy./Diag. 0.10E+00    5.3     0.09155992       -49.2574826740 -3.00E-03
   107 Broy./Diag. 0.10E+00    5.3     0.06667101       -49.2442309700  1.33E-02
   108 Broy./Diag. 0.10E+00    5.3     0.07486575       -49.2459736845 -1.74E-03
   109 Broy./Diag. 0.10E+00    5.5     0.06970204       -49.2828609565 -3.69E-02
   110 Broy./Diag. 0.10E+00    5.5     0.04251492       -49.2769577485  5.90E-03
   111 Broy./Diag. 0.10E+00    5.5     0.06304212       -49.2896330627 -1.27E-02
   112 Broy./Diag. 0.10E+00    5.4     0.03165516       -49.3061322272 -1.65E-02
   113 Broy./Diag. 0.10E+00    5.7     0.02438095       -49.3049358680  1.20E-03
   114 Broy./Diag. 0.10E+00    5.5     0.01924554       -49.3037959361  1.14E-03
   115 Broy./Diag. 0.10E+00    5.5     0.01739877       -49.3075176225 -3.72E-03
   116 Broy./Diag. 0.10E+00    5.5     0.00780836       -49.3096473085 -2.13E-03
   117 Broy./Diag. 0.10E+00    5.5     0.00988148       -49.3083115344  1.34E-03
   118 Broy./Diag. 0.10E+00    5.4     0.01502140       -49.3046790924  3.63E-03
   119 Broy./Diag. 0.10E+00    5.4     0.01391352       -49.2997136557  4.97E-03
   120 Broy./Diag. 0.10E+00    5.3     0.02742309       -49.3025070845 -2.79E-03
   121 Broy./Diag. 0.10E+00    5.3     0.01899463       -49.2956848683  6.82E-03
   122 Broy./Diag. 0.10E+00    5.3     0.07808119       -49.2938629556  1.82E-03
   123 Broy./Diag. 0.10E+00    5.3     0.06819556       -49.2952964240 -1.43E-03
   124 Broy./Diag. 0.10E+00    5.3     0.03044283       -49.2914687188  3.83E-03
   125 Broy./Diag. 0.10E+00    5.5     0.02020019       -49.2937506382 -2.28E-03
   126 Broy./Diag. 0.10E+00    5.4     0.02527461       -49.2927865079  9.64E-04
   127 Broy./Diag. 0.10E+00    5.5     0.03357593       -49.2928721075 -8.56E-05
   128 Broy./Diag. 0.10E+00    5.4     0.04465615       -49.2914636401  1.41E-03
   129 Broy./Diag. 0.10E+00    5.6     0.06405583       -49.2898519740  1.61E-03
   130 Broy./Diag. 0.10E+00    5.6     0.09237500       -49.2879423043  1.91E-03
   131 Broy./Diag. 0.10E+00    5.7     0.12250427       -49.2871379170  8.04E-04
   132 Broy./Diag. 0.10E+00    5.5     0.13562568       -49.2863191421  8.19E-04
   133 Broy./Diag. 0.10E+00    5.5     0.12236930       -49.2834583165  2.86E-03
   134 Broy./Diag. 0.10E+00    5.4     0.10167481       -49.2829933122  4.65E-04
   135 Broy./Diag. 0.10E+00    5.4     0.10202464       -49.2813112294  1.68E-03
   136 Broy./Diag. 0.10E+00    5.4     0.08811000       -49.2800170904  1.29E-03
   137 Broy./Diag. 0.10E+00    5.3     0.07354179       -49.2771306454  2.89E-03
   138 Broy./Diag. 0.10E+00    5.3     0.05937721       -49.2774739309 -3.43E-04
   139 Broy./Diag. 0.10E+00    5.3     0.04723948       -49.2768642256  6.10E-04
   140 Broy./Diag. 0.10E+00    5.3     0.03694231       -49.2739805847  2.88E-03
   141 Broy./Diag. 0.10E+00    5.3     0.03761047       -49.2730659247  9.15E-04
   142 Broy./Diag. 0.10E+00    5.4     0.05079250       -49.2653593006  7.71E-03
   143 Broy./Diag. 0.10E+00    5.4     0.03793549       -49.2722640153 -6.90E-03
   144 Broy./Diag. 0.10E+00    5.6     0.10635704       -49.2634210687  8.84E-03
   145 Broy./Diag. 0.10E+00    5.6     0.10920643       -49.2896438614 -2.62E-02
   146 Broy./Diag. 0.10E+00    5.6     0.10663915       -49.2957630595 -6.12E-03
   147 Broy./Diag. 0.10E+00    5.6     0.05174319       -49.3275969135 -3.18E-02
   148 Broy./Diag. 0.10E+00    5.5     0.20014805       -49.3516431281 -2.40E-02
   149 Broy./Diag. 0.10E+00    5.4     0.18381536       -49.3754002720 -2.38E-02
   150 Broy./Diag. 0.10E+00    5.4     0.10311122       -49.3578345470  1.76E-02
   151 Broy./Diag. 0.10E+00    5.4     0.10676317       -49.3630764075 -5.24E-03
   152 Broy./Diag. 0.10E+00    5.4     0.13799154       -49.3690460640 -5.97E-03
   153 Broy./Diag. 0.10E+00    5.4     0.10028420       -49.3776278126 -8.58E-03
   154 Broy./Diag. 0.10E+00    5.4     0.12132687       -49.3745313381  3.10E-03
   155 Broy./Diag. 0.10E+00    5.4     0.09076903       -49.3563717747  1.82E-02
   156 Broy./Diag. 0.10E+00    5.3     0.11117731       -49.3464228789  9.95E-03
   157 Broy./Diag. 0.10E+00    5.3     0.12927332       -49.3387086269  7.71E-03
   158 Broy./Diag. 0.10E+00    5.4     0.13963262       -49.3336091470  5.10E-03
   159 Broy./Diag. 0.10E+00    5.6     0.12827322       -49.3294637773  4.15E-03
   160 Broy./Diag. 0.10E+00    5.6     0.10780863       -49.3265498110  2.91E-03
   161 Broy./Diag. 0.10E+00    5.5     0.12727497       -49.3193889230  7.16E-03
   162 Broy./Diag. 0.10E+00    5.5     0.13021419       -49.3205184970 -1.13E-03
   163 Broy./Diag. 0.10E+00    5.4     0.10493465       -49.3410883355 -2.06E-02
   164 Broy./Diag. 0.10E+00    5.4     0.09698838       -49.3566744945 -1.56E-02
   165 Broy./Diag. 0.10E+00    5.3     0.22135931       -49.3849027601 -2.82E-02
   166 Broy./Diag. 0.10E+00    5.3     0.12356544       -49.3980895296 -1.32E-02
   167 Broy./Diag. 0.10E+00    5.3     0.10809041       -49.3839622319  1.41E-02
   168 Broy./Diag. 0.10E+00    5.3     0.07039396       -49.3784124014  5.55E-03
   169 Broy./Diag. 0.10E+00    5.3     0.11416536       -49.3687151317  9.70E-03
   170 Broy./Diag. 0.10E+00    5.3     0.12454878       -49.3601202100  8.59E-03
   171 Broy./Diag. 0.10E+00    5.3     0.13487977       -49.3468711437  1.32E-02
   172 Broy./Diag. 0.10E+00    5.3     0.15149634       -49.3271009907  1.98E-02
   173 Broy./Diag. 0.10E+00    5.4     0.09619603       -49.3182555314  8.85E-03
   174 Broy./Diag. 0.10E+00    5.5     0.20694141       -49.3435389186 -2.53E-02
   175 Broy./Diag. 0.10E+00    5.5     0.12199451       -49.3784654400 -3.49E-02
   176 Broy./Diag. 0.10E+00    5.6     0.37075289       -49.3874186557 -8.95E-03
   177 Broy./Diag. 0.10E+00    5.5     0.27363858       -49.3517428039  3.57E-02
   178 Broy./Diag. 0.10E+00    5.4     0.16374194       -49.2965871191  5.52E-02
   179 Broy./Diag. 0.10E+00    5.5     0.11920882       -49.2414136141  5.52E-02
   180 Broy./Diag. 0.10E+00    5.5     0.25116236       -49.1897964054  5.16E-02
   181 Broy./Diag. 0.10E+00    5.5     0.26434540       -49.1512716730  3.85E-02
   182 Broy./Diag. 0.10E+00    5.4     0.14185998       -49.1690134276 -1.77E-02
   183 Broy./Diag. 0.10E+00    5.4     0.11876239       -49.1988836342 -2.99E-02
   184 Broy./Diag. 0.10E+00    5.4     0.18466641       -49.2070839945 -8.20E-03
   185 Broy./Diag. 0.10E+00    5.4     0.28074988       -49.2667313639 -5.96E-02
   186 Broy./Diag. 0.10E+00    5.3     0.26988553       -49.3229536013 -5.62E-02
   187 Broy./Diag. 0.10E+00    5.3     0.11279339       -49.3430705631 -2.01E-02
   188 Broy./Diag. 0.10E+00    5.4     0.03711010       -49.3316921929  1.14E-02
   189 Broy./Diag. 0.10E+00    5.6     0.03830789       -49.3276242380  4.07E-03
   190 Broy./Diag. 0.10E+00    5.6     0.08730181       -49.3391413409 -1.15E-02
   191 Broy./Diag. 0.10E+00    5.5     0.10148002       -49.3342517138  4.89E-03
   192 Broy./Diag. 0.10E+00    5.4     0.09269759       -49.3183118222  1.59E-02
   193 Broy./Diag. 0.10E+00    5.4     0.04095431       -49.3064672077  1.18E-02
   194 Broy./Diag. 0.10E+00    5.4     0.08671057       -49.3103881984 -3.92E-03
   195 Broy./Diag. 0.10E+00    5.5     0.02474221       -49.3088878659  1.50E-03
   196 Broy./Diag. 0.10E+00    5.5     0.01270752       -49.3041954749  4.69E-03
   197 Broy./Diag. 0.10E+00    5.5     0.01617560       -49.3031679567  1.03E-03
   198 Broy./Diag. 0.10E+00    5.5     0.02151688       -49.3022586671  9.09E-04
   199 Broy./Diag. 0.10E+00    5.5     0.01485848       -49.3044865877 -2.23E-03
   200 Broy./Diag. 0.10E+00    5.4     0.02074753       -49.3030352302  1.45E-03
   201 Broy./Diag. 0.10E+00    5.4     0.04757969       -49.2969688585  6.07E-03
   202 Broy./Diag. 0.10E+00    5.4     0.06500829       -49.2998691572 -2.90E-03
   203 Broy./Diag. 0.10E+00    5.5     0.09103326       -49.2959665030  3.90E-03
   204 Broy./Diag. 0.10E+00    5.5     0.09451046       -49.2960734012 -1.07E-04
   205 Broy./Diag. 0.10E+00    5.6     0.13390770       -49.2944666061  1.61E-03
   206 Broy./Diag. 0.10E+00    5.5     0.15790682       -49.2899918123  4.47E-03
   207 Broy./Diag. 0.10E+00    5.5     0.14484268       -49.2839620963  6.03E-03
   208 Broy./Diag. 0.10E+00    5.4     0.11185321       -49.2794687872  4.49E-03
   209 Broy./Diag. 0.10E+00    5.5     0.08091044       -49.2763751583  3.09E-03
   210 Broy./Diag. 0.10E+00    5.4     0.05279935       -49.2731827109  3.19E-03
   211 Broy./Diag. 0.10E+00    5.5     0.05147182       -49.2725914403  5.91E-04
   212 Broy./Diag. 0.10E+00    5.6     0.03981571       -49.2747964978 -2.21E-03
   213 Broy./Diag. 0.10E+00    5.4     0.04201196       -49.2792305742 -4.43E-03
   214 Broy./Diag. 0.10E+00    5.4     0.05885255       -49.2881472671 -8.92E-03
   215 Broy./Diag. 0.10E+00    5.3     0.05295520       -49.2848485117  3.30E-03
   216 Broy./Diag. 0.10E+00    5.4     0.06806715       -49.2768753900  7.97E-03
   217 Broy./Diag. 0.10E+00    5.4     0.11328120       -49.2703880638  6.49E-03
   218 Broy./Diag. 0.10E+00    5.3     0.16938520       -49.2571784084  1.32E-02
   219 Broy./Diag. 0.10E+00    5.3     0.11407018       -49.2290536828  2.81E-02
   220 Broy./Diag. 0.10E+00    5.5     0.25027906       -49.2533600062 -2.43E-02
   221 Broy./Diag. 0.10E+00    5.5     0.57084712       -49.3562907894 -1.03E-01
   222 Broy./Diag. 0.10E+00    5.5     0.29498945       -49.3563009074 -1.01E-05
   223 Broy./Diag. 0.10E+00    5.5     0.08750243       -49.2802438459  7.61E-02
   224 Broy./Diag. 0.10E+00    5.4     0.10060553       -49.2479072418  3.23E-02
   225 Broy./Diag. 0.10E+00    5.6     0.09415742       -49.2752041934 -2.73E-02
   226 Broy./Diag. 0.10E+00    5.4     0.11271848       -49.2677631622  7.44E-03
   227 Broy./Diag. 0.10E+00    5.5     0.15873317       -49.2987967023 -3.10E-02
   228 Broy./Diag. 0.10E+00    5.4     0.76957054       -49.1873804551  1.11E-01
   229 Broy./Diag. 0.10E+00    5.4     0.15072781       -49.3684081232 -1.81E-01
   230 Broy./Diag. 0.10E+00    5.4     0.04209141       -49.3851594160 -1.68E-02
   231 Broy./Diag. 0.10E+00    5.4     0.03033258       -49.3703101628  1.48E-02
   232 Broy./Diag. 0.10E+00    5.3     0.03504290       -49.3637007577  6.61E-03
   233 Broy./Diag. 0.10E+00    5.4     0.04178535       -49.3507352677  1.30E-02
   234 Broy./Diag. 0.10E+00    5.3     0.05688068       -49.3398172558  1.09E-02
   235 Broy./Diag. 0.10E+00    5.4     0.06412938       -49.3337579076  6.06E-03
   236 Broy./Diag. 0.10E+00    5.5     0.05628652       -49.3360743368 -2.32E-03
   237 Broy./Diag. 0.10E+00    5.6     0.04209109       -49.3656128530 -2.95E-02
   238 Broy./Diag. 0.10E+00    5.6     0.06459884       -49.3880976015 -2.25E-02
   239 Broy./Diag. 0.10E+00    5.5     0.05207456       -49.3960621389 -7.96E-03
   240 Broy./Diag. 0.10E+00    5.5     0.03844201       -49.3959242784  1.38E-04
   241 Broy./Diag. 0.10E+00    5.6     0.04390721       -49.3998878216 -3.96E-03
   242 Broy./Diag. 0.10E+00    5.5     0.04481157       -49.4027782174 -2.89E-03
   243 Broy./Diag. 0.10E+00    5.4     0.06091687       -49.4057349112 -2.96E-03
   244 Broy./Diag. 0.10E+00    5.4     0.08342599       -49.4170841353 -1.13E-02
   245 Broy./Diag. 0.10E+00    5.4     0.10305166       -49.4312499675 -1.42E-02
   246 Broy./Diag. 0.10E+00    5.3     0.11028355       -49.4355053571 -4.26E-03
   247 Broy./Diag. 0.10E+00    5.3     0.10909049       -49.4314208662  4.08E-03
   248 Broy./Diag. 0.10E+00    5.3     0.09939096       -49.4253284487  6.09E-03
   249 Broy./Diag. 0.10E+00    5.4     0.12316654       -49.4034858043  2.18E-02
   250 Broy./Diag. 0.10E+00    5.3     0.09861902       -49.3948219915  8.66E-03
   251 Broy./Diag. 0.10E+00    5.3     0.11316115       -49.3864478600  8.37E-03
   252 Broy./Diag. 0.10E+00    5.4     0.06725056       -49.3773812278  9.07E-03
   253 Broy./Diag. 0.10E+00    5.6     0.16177405       -49.3702386757  7.14E-03
   254 Broy./Diag. 0.10E+00    5.6     0.04960901       -49.3629305718  7.31E-03
   255 Broy./Diag. 0.10E+00    5.7     0.07879212       -49.3588894248  4.04E-03
   256 Broy./Diag. 0.10E+00    5.5     0.10409025       -49.3784066641 -1.95E-02
   257 Broy./Diag. 0.10E+00    5.4     0.17122661       -49.4269592909 -4.86E-02
   258 Broy./Diag. 0.10E+00    5.5     0.10742915       -49.4097737740  1.72E-02
   259 Broy./Diag. 0.10E+00    5.4     0.10183758       -49.3645424978  4.52E-02
   260 Broy./Diag. 0.10E+00    5.5     0.06183309       -49.3300118457  3.45E-02
   261 Broy./Diag. 0.10E+00    5.4     0.05848980       -49.3305760914 -5.64E-04
   262 Broy./Diag. 0.10E+00    5.4     0.04153268       -49.3276459922  2.93E-03
   263 Broy./Diag. 0.10E+00    5.3     0.08396207       -49.3343076887 -6.66E-03
   264 Broy./Diag. 0.10E+00    5.3     0.08762791       -49.3244989950  9.81E-03
   265 Broy./Diag. 0.10E+00    5.3     0.10907278       -49.3159740957  8.52E-03
   266 Broy./Diag. 0.10E+00    5.3     0.06912761       -49.2998040003  1.62E-02
   267 Broy./Diag. 0.10E+00    5.3     0.07427322       -49.2834499763  1.64E-02
   268 Broy./Diag. 0.10E+00    5.3     0.05667189       -49.2641348834  1.93E-02
   269 Broy./Diag. 0.10E+00    5.4     0.06931607       -49.2507150684  1.34E-02
   270 Broy./Diag. 0.10E+00    5.6     0.06851668       -49.2494796819  1.24E-03
   271 Broy./Diag. 0.10E+00    5.6     0.10572583       -49.2341980461  1.53E-02
   272 Broy./Diag. 0.10E+00    5.5     0.10846009       -49.2215977605  1.26E-02
   273 Broy./Diag. 0.10E+00    5.6     0.11065574       -49.2052458359  1.64E-02
   274 Broy./Diag. 0.10E+00    5.5     0.08193204       -49.2242254192 -1.90E-02
   275 Broy./Diag. 0.10E+00    5.5     0.15680304       -49.1927116413  3.15E-02
   276 Broy./Diag. 0.10E+00    5.3     0.11204050       -49.1838973472  8.81E-03
   277 Broy./Diag. 0.10E+00    5.5     0.04734496       -49.1932360446 -9.34E-03
   278 Broy./Diag. 0.10E+00    5.5     0.05491502       -49.2182687657 -2.50E-02
   279 Broy./Diag. 0.10E+00    5.3     0.12179057       -49.2089920616  9.28E-03
   280 Broy./Diag. 0.10E+00    5.3     0.12917107       -49.2002228092  8.77E-03
   281 Broy./Diag. 0.10E+00    5.4     0.08774187       -49.2257460217 -2.55E-02
   282 Broy./Diag. 0.10E+00    5.4     0.22443349       -49.2699172034 -4.42E-02
   283 Broy./Diag. 0.10E+00    5.4     0.09200539       -49.3031635805 -3.32E-02
   284 Broy./Diag. 0.10E+00    5.4     0.10869649       -49.3154493032 -1.23E-02
   285 Broy./Diag. 0.10E+00    5.4     0.19505506       -49.3359840867 -2.05E-02
   286 Broy./Diag. 0.10E+00    5.6     0.16455235       -49.3091331848  2.69E-02
   287 Broy./Diag. 0.10E+00    5.6     0.10376219       -49.2820554088  2.71E-02
   288 Broy./Diag. 0.10E+00    5.6     0.09211951       -49.3347243653 -5.27E-02
   289 Broy./Diag. 0.10E+00    5.6     0.07168848       -49.3391824709 -4.46E-03
   290 Broy./Diag. 0.10E+00    5.4     0.25673035       -49.3195555582  1.96E-02
   291 Broy./Diag. 0.10E+00    5.4     0.14035773       -49.3409542187 -2.14E-02
   292 Broy./Diag. 0.10E+00    5.4     0.07997662       -49.3443268096 -3.37E-03
   293 Broy./Diag. 0.10E+00    5.4     0.18987301       -49.3130871170  3.12E-02
   294 Broy./Diag. 0.10E+00    5.3     0.21494704       -49.2990949674  1.40E-02
   295 Broy./Diag. 0.10E+00    5.3     0.14559207       -49.2843281946  1.48E-02
   296 Broy./Diag. 0.10E+00    5.3     0.11218042       -49.2456982131  3.86E-02
   297 Broy./Diag. 0.10E+00    5.3     0.09915635       -49.2422985526  3.40E-03
   298 Broy./Diag. 0.10E+00    5.3     0.06512853       -49.2598581460 -1.76E-02
   299 Broy./Diag. 0.10E+00    5.4     0.10404282       -49.2707219583 -1.09E-02
   300 Broy./Diag. 0.10E+00    5.3     0.10174985       -49.2431933885  2.75E-02
   301 Broy./Diag. 0.10E+00    5.3     0.29361244       -49.2420162638  1.18E-03
   302 Broy./Diag. 0.10E+00    5.4     0.20621667       -49.2990846251 -5.71E-02
   303 Broy./Diag. 0.10E+00    5.5     0.21553156       -49.3158635840 -1.68E-02
   304 Broy./Diag. 0.10E+00    5.6     0.20820984       -49.2997234730  1.61E-02
   305 Broy./Diag. 0.10E+00    5.6     0.13022669       -49.3062572883 -6.53E-03
   306 Broy./Diag. 0.10E+00    5.4     0.08963588       -49.2912836227  1.50E-02
   307 Broy./Diag. 0.10E+00    5.4     0.06092453       -49.2739112762  1.74E-02
   308 Broy./Diag. 0.10E+00    5.4     0.11598361       -49.2605069386  1.34E-02
   309 Broy./Diag. 0.10E+00    5.3     0.16898305       -49.2853958698 -2.49E-02
   310 Broy./Diag. 0.10E+00    5.3     0.21712012       -49.3124740474 -2.71E-02
   311 Broy./Diag. 0.10E+00    5.3     0.18252555       -49.3251157674 -1.26E-02
   312 Broy./Diag. 0.10E+00    5.3     0.08909414       -49.3481449501 -2.30E-02
   313 Broy./Diag. 0.10E+00    5.3     0.12429678       -49.3614314823 -1.33E-02
   314 Broy./Diag. 0.10E+00    5.3     0.04020003       -49.3531524933  8.28E-03
   315 Broy./Diag. 0.10E+00    5.3     0.09304550       -49.3636991970 -1.05E-02
   316 Broy./Diag. 0.10E+00    5.3     0.06641400       -49.3689556330 -5.26E-03
   317 Broy./Diag. 0.10E+00    5.5     0.02655649       -49.3598499431  9.11E-03
   318 Broy./Diag. 0.10E+00    5.5     0.01801925       -49.3601384293 -2.88E-04
   319 Broy./Diag. 0.10E+00    5.5     0.01890180       -49.3642123385 -4.07E-03
   320 Broy./Diag. 0.10E+00    5.6     0.03502967       -49.3633953131  8.17E-04
   321 Broy./Diag. 0.10E+00    5.6     0.04438878       -49.3661555360 -2.76E-03
   322 Broy./Diag. 0.10E+00    5.5     0.05387003       -49.3697035322 -3.55E-03
   323 Broy./Diag. 0.10E+00    5.5     0.06941624       -49.3703385336 -6.35E-04
   324 Broy./Diag. 0.10E+00    5.6     0.08198276       -49.3707707987 -4.32E-04
   325 Broy./Diag. 0.10E+00    5.4     0.08411828       -49.3685094149  2.26E-03
   326 Broy./Diag. 0.10E+00    5.4     0.10009686       -49.3620253539  6.48E-03
   327 Broy./Diag. 0.10E+00    5.4     0.10369781       -49.3523037985  9.72E-03
   328 Broy./Diag. 0.10E+00    5.3     0.10419235       -49.3418755499  1.04E-02
   329 Broy./Diag. 0.10E+00    5.3     0.09159008       -49.3296016424  1.23E-02
   330 Broy./Diag. 0.10E+00    5.3     0.07699228       -49.3207855725  8.82E-03
   331 Broy./Diag. 0.10E+00    5.3     0.06173859       -49.3156760938  5.11E-03
   332 Broy./Diag. 0.10E+00    5.5     0.04746653       -49.3142162579  1.46E-03
   333 Broy./Diag. 0.10E+00    5.4     0.03871949       -49.3029469966  1.13E-02
   334 Broy./Diag. 0.10E+00    5.6     0.04620445       -49.3290434906 -2.61E-02
   335 Broy./Diag. 0.10E+00    5.6     0.05931463       -49.3260417456  3.00E-03
   336 Broy./Diag. 0.10E+00    5.6     0.06145959       -49.3282075920 -2.17E-03
   337 Broy./Diag. 0.10E+00    5.5     0.08332950       -49.3412475536 -1.30E-02
   338 Broy./Diag. 0.10E+00    5.4     0.07370149       -49.3440020945 -2.75E-03
   339 Broy./Diag. 0.10E+00    5.4     0.08588776       -49.3433230275  6.79E-04
   340 Broy./Diag. 0.10E+00    5.4     0.15816412       -49.3379984938  5.32E-03
   341 Broy./Diag. 0.10E+00    5.4     0.13296945       -49.3146259051  2.34E-02
   342 Broy./Diag. 0.10E+00    5.4     0.10508713       -49.3001868141  1.44E-02
   343 Broy./Diag. 0.10E+00    5.5     0.11008151       -49.3107095195 -1.05E-02
   344 Broy./Diag. 0.10E+00    5.4     0.05631667       -49.3068123324  3.90E-03
   345 Broy./Diag. 0.10E+00    5.4     0.09125088       -49.2998990955  6.91E-03
   346 Broy./Diag. 0.10E+00    5.4     0.08616294       -49.2850201045  1.49E-02
   347 Broy./Diag. 0.10E+00    5.7     0.06635749       -49.2655506331  1.95E-02
   348 Broy./Diag. 0.10E+00    5.6     0.05263820       -49.2531635324  1.24E-02
   349 Broy./Diag. 0.10E+00    5.7     0.04716669       -49.2408756540  1.23E-02
   350 Broy./Diag. 0.10E+00    5.7     0.05490900       -49.2558302898 -1.50E-02
   351 Broy./Diag. 0.10E+00    5.5     0.15785516       -49.2060516563  4.98E-02
   352 Broy./Diag. 0.10E+00    5.5     0.21741897       -49.2211273890 -1.51E-02
   353 Broy./Diag. 0.10E+00    5.6     0.20134055       -49.2220199312 -8.93E-04
   354 Broy./Diag. 0.10E+00    5.4     0.19294921       -49.2064219086  1.56E-02
   355 Broy./Diag. 0.10E+00    5.3     0.11485340       -49.1940472855  1.24E-02
   356 Broy./Diag. 0.10E+00    5.3     0.14668321       -49.1644269402  2.96E-02
   357 Broy./Diag. 0.10E+00    5.3     0.18248847       -49.1113658768  5.31E-02
   358 Broy./Diag. 0.10E+00    5.3     0.17936594       -49.0777782993  3.36E-02
   359 Broy./Diag. 0.10E+00    5.3     0.06307462       -49.0513604610  2.64E-02
   360 Broy./Diag. 0.10E+00    5.3     0.06715006       -49.0202034951  3.12E-02
[...]
   418 Broy./Diag. 0.10E+00    5.4     0.08055593       -49.4363914729  3.52E-02
   419 Broy./Diag. 0.10E+00    5.3     0.03083587       -49.3781527686  5.82E-02
   420 Broy./Diag. 0.10E+00    5.5     0.07696772       -49.3037696919  7.44E-02
   421 Broy./Diag. 0.10E+00    5.6     0.07407946       -49.2851322027  1.86E-02
   422 Broy./Diag. 0.10E+00    5.6     0.09689896       -49.3067065363 -2.16E-02
   423 Broy./Diag. 0.10E+00    5.5     0.06914656       -49.3127118664 -6.01E-03
   424 Broy./Diag. 0.10E+00    5.5     0.17447698       -49.3356233446 -2.29E-02
   425 Broy./Diag. 0.10E+00    5.5     0.19985257       -49.3674163919 -3.18E-02
   426 Broy./Diag. 0.10E+00    5.4     0.07615140       -49.3537360914  1.37E-02
   427 Broy./Diag. 0.10E+00    5.5     0.07283094       -49.3471801364  6.56E-03
   428 Broy./Diag. 0.10E+00    5.4     0.04790507       -49.3536902760 -6.51E-03
   429 Broy./Diag. 0.10E+00    5.5     0.03818458       -49.3521129437  1.58E-03
   430 Broy./Diag. 0.10E+00    5.5     0.03389868       -49.3416951961  1.04E-02
   431 Broy./Diag. 0.10E+00    5.4     0.05119126       -49.3538586323 -1.22E-02
   432 Broy./Diag. 0.10E+00    5.4     0.07484342       -49.3290163582  2.48E-02
   433 Broy./Diag. 0.10E+00    5.4     0.06427759       -49.3100852014  1.89E-02
   434 Broy./Diag. 0.10E+00    5.4     0.06508670       -49.3002182000  9.87E-03
   435 Broy./Diag. 0.10E+00    5.6     0.27511465       -49.3078852065 -7.67E-03
   436 Broy./Diag. 0.10E+00    5.6     0.29675951       -49.3263673077 -1.85E-02
   437 Broy./Diag. 0.10E+00    5.6     0.10840808       -49.2631415383  6.32E-02
   438 Broy./Diag. 0.10E+00    5.5     0.10278675       -49.2755819521 -1.24E-02
   439 Broy./Diag. 0.10E+00    5.4     0.28899894       -49.2894346516 -1.39E-02
   440 Broy./Diag. 0.10E+00    5.4     0.13660286       -49.3258086274 -3.64E-02
   441 Broy./Diag. 0.10E+00    5.4     0.11435384       -49.3058172853  2.00E-02
   442 Broy./Diag. 0.10E+00    5.5     0.18234359       -49.3002827949  5.53E-03
   443 Broy./Diag. 0.10E+00    5.4     0.11705336       -49.2953434531  4.94E-03
   444 Broy./Diag. 0.10E+00    5.6     0.06500237       -49.2924386943  2.90E-03
   445 Broy./Diag. 0.10E+00    5.4     0.05252113       -49.2955827303 -3.14E-03
   446 Broy./Diag. 0.10E+00    5.5     0.07113774       -49.2988437710 -3.26E-03
   447 Broy./Diag. 0.10E+00    5.3     0.09054244       -49.2938577098  4.99E-03
   448 Broy./Diag. 0.10E+00    5.3     0.09618891       -49.2966034576 -2.75E-03
   449 Broy./Diag. 0.10E+00    5.4     0.15317068       -49.2854916815  1.11E-02
   450 Broy./Diag. 0.10E+00    5.3     0.14223753       -49.2877812656 -2.29E-03
   451 Broy./Diag. 0.10E+00    5.3     0.15975300       -49.2936585798 -5.88E-03
   452 Broy./Diag. 0.10E+00    5.3     0.36544133       -49.3165882425 -2.29E-02
   453 Broy./Diag. 0.10E+00    5.4     0.15009725       -49.3092583158  7.33E-03
   454 Broy./Diag. 0.10E+00    5.6     0.14716950       -49.3026925830  6.57E-03
   455 Broy./Diag. 0.10E+00    5.6     0.11966554       -49.3301837188 -2.75E-02
   456 Broy./Diag. 0.10E+00    5.5     0.09505352       -49.3436338852 -1.35E-02
   457 Broy./Diag. 0.10E+00    5.4     0.07447040       -49.3429521786  6.82E-04
   458 Broy./Diag. 0.10E+00    5.4     0.06847424       -49.3425401141  4.12E-04
   459 Broy./Diag. 0.10E+00    5.5     0.17464536       -49.3354231500  7.12E-03
   460 Broy./Diag. 0.10E+00    5.6     0.22668792       -49.2878185130  4.76E-02
   461 Broy./Diag. 0.10E+00    5.5     0.14806180       -49.2159675146  7.19E-02
   462 Broy./Diag. 0.10E+00    5.4     0.19643598       -49.1914002333  2.46E-02
   463 Broy./Diag. 0.10E+00    5.3     0.14150526       -49.1462187422  4.52E-02
   464 Broy./Diag. 0.10E+00    5.3     0.12856800       -49.1535728351 -7.35E-03
   465 Broy./Diag. 0.10E+00    5.4     0.06689436       -49.1640101400 -1.04E-02
   466 Broy./Diag. 0.10E+00    5.3     0.08451967       -49.1796168583 -1.56E-02
   467 Broy./Diag. 0.10E+00    5.3     0.51438989       -49.2460359467 -6.64E-02
   468 Broy./Diag. 0.10E+00    5.3     0.23997912       -49.4011573013 -1.55E-01
   469 Broy./Diag. 0.10E+00    5.3     0.19480950       -49.3898468743  1.13E-02
   470 Broy./Diag. 0.10E+00    5.6     0.07480108       -49.3482729357  4.16E-02
   471 Broy./Diag. 0.10E+00    5.6     0.06232441       -49.3230604328  2.52E-02
   472 Broy./Diag. 0.10E+00    5.6     0.01804238       -49.3083147821  1.47E-02
   473 Broy./Diag. 0.10E+00    5.5     0.06990791       -49.2817995336  2.65E-02
   474 Broy./Diag. 0.10E+00    5.5     0.10152447       -49.2796569136  2.14E-03
   475 Broy./Diag. 0.10E+00    5.5     0.04414068       -49.2806377929 -9.81E-04
   476 Broy./Diag. 0.10E+00    5.5     0.07872758       -49.2816255455 -9.88E-04
   477 Broy./Diag. 0.10E+00    5.4     0.05339025       -49.2761356230  5.49E-03
   478 Broy./Diag. 0.10E+00    5.5     0.04614629       -49.2670793875  9.06E-03
   479 Broy./Diag. 0.10E+00    5.4     0.04573507       -49.2624436718  4.64E-03
   480 Broy./Diag. 0.10E+00    5.4     0.05550625       -49.2633431722 -9.00E-04
   481 Broy./Diag. 0.10E+00    5.4     0.08836585       -49.2659747580 -2.63E-03
   482 Broy./Diag. 0.10E+00    5.3     0.08501967       -49.2710449199 -5.07E-03
   483 Broy./Diag. 0.10E+00    5.3     0.12454053       -49.2682870141  2.76E-03
   484 Broy./Diag. 0.10E+00    5.3     0.15508258       -49.2703364322 -2.05E-03
   485 Broy./Diag. 0.10E+00    5.3     0.14404239       -49.2827607576 -1.24E-02
   486 Broy./Diag. 0.10E+00    5.4     0.10743419       -49.2897484272 -6.99E-03
   487 Broy./Diag. 0.10E+00    5.6     0.10491589       -49.2895963520  1.52E-04
   488 Broy./Diag. 0.10E+00    5.6     0.08914389       -49.2879856922  1.61E-03
   489 Broy./Diag. 0.10E+00    5.6     0.10505524       -49.2866338609  1.35E-03
   490 Broy./Diag. 0.10E+00    5.5     0.07200630       -49.2871803173 -5.46E-04
   491 Broy./Diag. 0.10E+00    5.5     0.06708042       -49.2831635315  4.02E-03
   492 Broy./Diag. 0.10E+00    5.4     0.06251528       -49.2764292043  6.73E-03
   493 Broy./Diag. 0.10E+00    5.5     0.08640206       -49.2669633155  9.47E-03
   494 Broy./Diag. 0.10E+00    5.3     0.06324946       -49.2489877691  1.80E-02
   495 Broy./Diag. 0.10E+00    5.4     0.08826898       -49.2422348948  6.75E-03
   496 Broy./Diag. 0.10E+00    5.3     0.08706525       -49.2455676056 -3.33E-03
   497 Broy./Diag. 0.10E+00    5.3     0.06252527       -49.2509830411 -5.42E-03
   498 Broy./Diag. 0.10E+00    5.3     0.03252702       -49.2582340738 -7.25E-03
   499 Broy./Diag. 0.10E+00    5.4     0.03230909       -49.2632545525 -5.02E-03
   500 Broy./Diag. 0.10E+00    5.6     0.05059913       -49.2632447162  9.84E-06

  Leaving inner SCF loop after reaching   500 steps.


  Electronic density on regular grids:         -6.3427673284        3.6572326716
  Core density on regular grids:               10.0000000000        0.0000000000
  Hard and soft densities (Lebedev):          -16.7521036690      -13.1062710193
  Total Rho_soft + Rho1_hard - Rho1_soft       -9.9885999780
  Total charge density (r-space):               0.0114000220
  Total Rho_soft + Rho0_soft (g-space):         0.0113999420

  Overlap energy of the core charge distribution:               0.00000845868521
  Self energy of the core charge distribution:                -32.50467561761386
  Core Hamiltonian energy:                                    -13.43328312424131
  Hartree energy:                                              11.51242770814570
  Exchange-correlation energy:                                 -1.52991764355394
  Hartree-Fock Exchange energy:                                -1.88267968581829

  GAPW| Exc from hard and soft atomic rho1:                    -4.38003482706401
  GAPW| local Eh = 1 center integrals:                         -7.04508998475246

  Total energy:                                               -49.26324471621297

 *******************************************************************************
 *   ___                                                                       *
 *  /   \                                                                      *
 * [ABORT]                                                                     *
 *  \___/     SCF run NOT converged. To continue the calculation regardless,   *
 *    |             please set the keyword IGNORE_CONVERGENCE_FAILURE.         *
 *  O/|                                                                        *
 * /| |                                                                        *
 * / \                                                            qs_scf.F:611 *
 *******************************************************************************


 ===== Routine Calling Stack ===== 

            3 scf_env_do_scf
            2 qs_energies
            1 CP2K

 *******************************************************************************
 *   ___                                                                       *
 *  /   \                                                                      *
 * [ABORT]                                                                     *
 *  \___/     SCF run NOT converged. To continue the calculation regardless,   *
 *    |             please set the keyword IGNORE_CONVERGENCE_FAILURE.         *
 *  O/|                                                                        *
 * /| |                                                                        *
 * / \                                                            qs_scf.F:611 *
 *******************************************************************************


 ===== Routine Calling Stack ===== 

            3 scf_env_do_scf
            2 qs_energies
            1 CP2K

 *******************************************************************************
 *   ___                                                                       *
 *  /   \                                                                      *
 * [ABORT]                                                                     *
 *  \___/     SCF run NOT converged. To continue the calculation regardless,   *
 *    |             please set the keyword IGNORE_CONVERGENCE_FAILURE.         *
 *  O/|                                                                        *
 * /| |                                                                        *
 * / \                                                            qs_scf.F:611 *
 *******************************************************************************


 ===== Routine Calling Stack ===== 

            3 scf_env_do_scf
            2 qs_energies
            1 CP2K

 *******************************************************************************
 *   ___                                                                       *
 *  /   \                                                                      *
 * [ABORT]                                                                     *
 *  \___/     SCF run NOT converged. To continue the calculation regardless,   *
 *    |             please set the keyword IGNORE_CONVERGENCE_FAILURE.         *
 *  O/|                                                                        *
 * /| |                                                                        *
 * / \                                                            qs_scf.F:611 *
 *******************************************************************************


 ===== Routine Calling Stack ===== 

            3 scf_env_do_scf
            2 qs_energies
            1 CP2K

 *******************************************************************************
 *   ___                                                                       *
 *  /   \                                                                      *
 * [ABORT]                                                                     *
 *  \___/     SCF run NOT converged. To continue the calculation regardless,   *
 *    |             please set the keyword IGNORE_CONVERGENCE_FAILURE.         *
 *  O/|                                                                        *
 * /| |                                                                        *
 * / \                                                            qs_scf.F:611 *
 *******************************************************************************


 ===== Routine Calling Stack ===== 

            3 scf_env_do_scf
            2 qs_energies
            1 CP2K

 *******************************************************************************
 *   ___                                                                       *
 *  /   \                                                                      *
 * [ABORT]                                                                     *
 *  \___/     SCF run NOT converged. To continue the calculation regardless,   *
 *    |             please set the keyword IGNORE_CONVERGENCE_FAILURE.         *
 *  O/|                                                                        *
 * /| |                                                                        *
 * / \                                                            qs_scf.F:611 *
 *******************************************************************************


 ===== Routine Calling Stack ===== 

            3 scf_env_do_scf
            2 qs_energies
            1 CP2K

 *******************************************************************************
 *   ___                                                                       *
 *  /   \                                                                      *
 * [ABORT]                                                                     *
 *  \___/     SCF run NOT converged. To continue the calculation regardless,   *
 *    |             please set the keyword IGNORE_CONVERGENCE_FAILURE.         *
 *  O/|                                                                        *
 * /| |                                                                        *
 * / \                                                            qs_scf.F:611 *
 *******************************************************************************


 ===== Routine Calling Stack ===== 

            3 scf_env_do_scf
            2 qs_energies
            1 CP2K

 *******************************************************************************
 *   ___                                                                       *
 *  /   \                                                                      *
 * [ABORT]                                                                     *
 *  \___/     SCF run NOT converged. To continue the calculation regardless,   *
 *    |             please set the keyword IGNORE_CONVERGENCE_FAILURE.         *
 *  O/|                                                                        *
 * /| |                                                                        *
 * / \                                                            qs_scf.F:611 *
 *******************************************************************************


 ===== Routine Calling Stack ===== 

            3 scf_env_do_scf
            2 qs_energies
            1 CP2K

 *******************************************************************************
 *   ___                                                                       *
 *  /   \                                                                      *
 * [ABORT]                                                                     *
 *  \___/     SCF run NOT converged. To continue the calculation regardless,   *
 *    |             please set the keyword IGNORE_CONVERGENCE_FAILURE.         *
 *  O/|                                                                        *
 * /| |                                                                        *
 * / \                                                            qs_scf.F:611 *
 *******************************************************************************


 ===== Routine Calling Stack ===== 

            3 scf_env_do_scf
            2 qs_energies
            1 CP2K

 *******************************************************************************
 *   ___                                                                       *
 *  /   \                                                                      *
 * [ABORT]                                                                     *
 *  \___/     SCF run NOT converged. To continue the calculation regardless,   *
 *    |             please set the keyword IGNORE_CONVERGENCE_FAILURE.         *
 *  O/|                                                                        *
 * /| |                                                                        *
 * / \                                                            qs_scf.F:611 *
 *******************************************************************************


 ===== Routine Calling Stack ===== 

            3 scf_env_do_scf
            2 qs_energies
            1 CP2K

 *******************************************************************************
 *   ___                                                                       *
 *  /   \                                                                      *
 * [ABORT]                                                                     *
 *  \___/     SCF run NOT converged. To continue the calculation regardless,   *
 *    |             please set the keyword IGNORE_CONVERGENCE_FAILURE.         *
 *  O/|                                                                        *
 * /| |                                                                        *
 * / \                                                            qs_scf.F:611 *
 *******************************************************************************


 ===== Routine Calling Stack ===== 

            3 scf_env_do_scf
            2 qs_energies
            1 CP2K

 *******************************************************************************
 *   ___                                                                       *
 *  /   \                                                                      *
 * [ABORT]                                                                     *
 *  \___/     SCF run NOT converged. To continue the calculation regardless,   *
 *    |             please set the keyword IGNORE_CONVERGENCE_FAILURE.         *
 *  O/|                                                                        *
 * /| |                                                                        *
 * / \                                                            qs_scf.F:611 *
 *******************************************************************************


 ===== Routine Calling Stack ===== 

            3 scf_env_do_scf
            2 qs_energies
            1 CP2K

 *******************************************************************************
 *   ___                                                                       *
 *  /   \                                                                      *
 * [ABORT]                                                                     *
 *  \___/     SCF run NOT converged. To continue the calculation regardless,   *
 *    |             please set the keyword IGNORE_CONVERGENCE_FAILURE.         *
 *  O/|                                                                        *
 * /| |                                                                        *
 * / \                                                            qs_scf.F:611 *
 *******************************************************************************


 ===== Routine Calling Stack ===== 

            3 scf_env_do_scf
            2 qs_energies
            1 CP2K
