 DBCSR| CPU Multiplication driver                                           BLAS (U)
 DBCSR| Multrec recursion limit                                              512 (U)
 DBCSR| Multiplication stack size                                           1000 (D)
 DBCSR| Maximum elements for images                                    UNLIMITED (U)
 DBCSR| Multiplicative factor virtual images                                   1 (U)
 DBCSR| Use multiplication densification                                       T (D)
 DBCSR| Multiplication size stacks                                             3 (U)
 DBCSR| Use memory pool for CPU allocation                                     F (U)
 DBCSR| Number of 3D layers                                               SINGLE (U)
 DBCSR| Use MPI memory allocation                                              F (U)
 DBCSR| Use RMA algorithm                                                      F (U)
 DBCSR| Use Communication thread                                               T (U)
 DBCSR| Communication thread load                                             75 (D)
 DBCSR| MPI: My process id                                                     0
 DBCSR| MPI: Number of processes                                              24
 DBCSR| OMP: Current number of threads                                         4
 DBCSR| OMP: Max number of threads                                             4
 DBCSR| Split modifier for TAS multiplication algorithm                  1.0E+00 (U)


  **** **** ******  **  PROGRAM STARTED AT               2025-03-09 21:05:56.388
 ***** ** ***  *** **   PROGRAM STARTED ON                          i02r11c06s10
 **    ****   ******    PROGRAM STARTED BY                               di38fab
 ***** **    ** ** **   PROGRAM PROCESS ID                               2464097
  **** **  *******  **  PROGRAM STARTED IN /hppfs/scratch/04/di38fab/05_MOL/W4-1
                                           1+ALK/b2/aug-cc-pVQZ

 CP2K| version string:                 CP2K version 2025.1 (Development Version)
 CP2K| source code revision number:                                  git:47877ba
 CP2K| cp2kflags: omp libint fftw3 libxc parallel scalapack max_contr=4         
 CP2K| is freely available from                            https://www.cp2k.org/
 CP2K| Program compiled at                          Thu Feb 20 16:00:34 CET 2025
 CP2K| Program compiled on                                               login04
 CP2K| Program compiled for                                        Supermuc-foss
 CP2K| Data directory path          /hppfs/work/pn36zo/di38fab/newcp2k/cp2k/data
 CP2K| Input file name                                                    GW.inp

 GLOBAL| Force Environment number                                              1
 GLOBAL| Basis set file name            /hppfs/scratch/04/di38fab/04_TMD/BASIS_A
 GLOBAL| Potential file name            /hppfs/work/pn36zo/di38fab/cp2k/data/ALL
 GLOBAL| MM Potential file name                                     MM_POTENTIAL
 GLOBAL| Coordinate file name                                      __STD_INPUT__
 GLOBAL| Method name                                                        CP2K
 GLOBAL| Project name                                                       MoS2
 GLOBAL| Run type                                                         ENERGY
 GLOBAL| FFT library                                                       FFTW3
 GLOBAL| Diagonalization library                                       ScaLAPACK
 GLOBAL| DGEMM library                                                      BLAS
 GLOBAL| Orthonormality check for eigenvectors                          DISABLED
 GLOBAL| Matrix multiplication library                                 ScaLAPACK
 GLOBAL| All-to-all communication in single precision                          F
 GLOBAL| FFTs using library dependent lengths                                  F
 GLOBAL| Grid backend                                                       AUTO
 GLOBAL| Global print level                                               MEDIUM
 GLOBAL| MPI I/O enabled                                                       T
 GLOBAL| Total number of message passing processes                            24
 GLOBAL| Number of threads for this process                                    4
 GLOBAL| This output is from process                                           0
 GLOBAL| OpenMP stack size per thread (OMP_STACKSIZE)                    default
 GLOBAL| CPU model name             Intel(R) Xeon(R) Platinum 8174 CPU @ 3.10GHz

 MEMORY| system memory details [Kb]
 MEMORY|                        rank 0           min           max       average
 MEMORY| MemTotal             98436660      98436660      98436664      98436662
 MEMORY| MemFree              84327612      83794920      84327612      84061266
 MEMORY| Buffers                     0             0             0             0
 MEMORY| Cached                2398332       2398332       2421592       2409962
 MEMORY| Slab                  1199472       1199472       1260828       1230150
 MEMORY| SReclaimable           271136        271136        279608        275372
 MEMORY| MemLikelyFree        86997080      86496120      86997080      86746600


 *** Fundamental physical constants (SI units) ***

 *** Literature: B. J. Mohr and B. N. Taylor,
 ***             CODATA recommended values of the fundamental physical
 ***             constants: 2006, Web Version 5.1
 ***             http://physics.nist.gov/constants

 Speed of light in vacuum [m/s]                             2.99792458000000E+08
 Magnetic constant or permeability of vacuum [N/A**2]       1.25663706143592E-06
 Electric constant or permittivity of vacuum [F/m]          8.85418781762039E-12
 Planck constant (h) [J*s]                                  6.62606896000000E-34
 Planck constant (h-bar) [J*s]                              1.05457162825177E-34
 Elementary charge [C]                                      1.60217648700000E-19
 Electron mass [kg]                                         9.10938215000000E-31
 Electron g factor [ ]                                     -2.00231930436220E+00
 Proton mass [kg]                                           1.67262163700000E-27
 Fine-structure constant                                    7.29735253760000E-03
 Rydberg constant [1/m]                                     1.09737315685270E+07
 Avogadro constant [1/mol]                                  6.02214179000000E+23
 Boltzmann constant [J/K]                                   1.38065040000000E-23
 Atomic mass unit [kg]                                      1.66053878200000E-27
 Bohr radius [m]                                            5.29177208590000E-11

 *** Conversion factors ***

 [u] -> [a.u.]                                              1.82288848426455E+03
 [Angstrom] -> [Bohr] = [a.u.]                              1.88972613288564E+00
 [a.u.] = [Bohr] -> [Angstrom]                              5.29177208590000E-01
 [a.u.] -> [s]                                              2.41888432650478E-17
 [a.u.] -> [fs]                                             2.41888432650478E-02
 [a.u.] -> [J]                                              4.35974393937059E-18
 [a.u.] -> [N]                                              8.23872205491840E-08
 [a.u.] -> [K]                                              3.15774647902944E+05
 [a.u.] -> [kJ/mol]                                         2.62549961709828E+03
 [a.u.] -> [kcal/mol]                                       6.27509468713739E+02
 [a.u.] -> [Pa]                                             2.94210107994716E+13
 [a.u.] -> [bar]                                            2.94210107994716E+08
 [a.u.] -> [atm]                                            2.90362800883016E+08
 [a.u.] -> [eV]                                             2.72113838565563E+01
 [a.u.] -> [Hz]                                             6.57968392072181E+15
 [a.u.] -> [1/cm] (wave numbers)                            2.19474631370540E+05
 [a.u./Bohr**2] -> [1/cm]                                   5.14048714338585E+03
 

 CELL_TOP| Volume [angstrom^3]:                                     27000.000000
 CELL_TOP| Vector a [angstrom    30.000     0.000     0.000   |a| =    30.000000
 CELL_TOP| Vector b [angstrom     0.000    30.000     0.000   |b| =    30.000000
 CELL_TOP| Vector c [angstrom     0.000     0.000    30.000   |c| =    30.000000
 CELL_TOP| Angle (b,c), alpha [degree]:                                90.000000
 CELL_TOP| Angle (a,c), beta  [degree]:                                90.000000
 CELL_TOP| Angle (a,b), gamma [degree]:                                90.000000
 CELL_TOP| Numerically orthorhombic:                                         YES
 CELL_TOP| Periodicity                                                      NONE

 GENERATE|  Preliminary Number of Bonds generated:                             0
 GENERATE|  Achieved consistency in connectivity generation.

 CELL| Volume [angstrom^3]:                                         27000.000000
 CELL| Vector a [angstrom]:      30.000     0.000     0.000   |a| =    30.000000
 CELL| Vector b [angstrom]:       0.000    30.000     0.000   |b| =    30.000000
 CELL| Vector c [angstrom]:       0.000     0.000    30.000   |c| =    30.000000
 CELL| Angle (b,c), alpha [degree]:                                    90.000000
 CELL| Angle (a,c), beta  [degree]:                                    90.000000
 CELL| Angle (a,b), gamma [degree]:                                    90.000000
 CELL| Numerically orthorhombic:                                             YES
 CELL| Periodicity                                                          NONE

 CELL_REF| Volume [angstrom^3]:                                     27000.000000
 CELL_REF| Vector a [angstrom    30.000     0.000     0.000   |a| =    30.000000
 CELL_REF| Vector b [angstrom     0.000    30.000     0.000   |b| =    30.000000
 CELL_REF| Vector c [angstrom     0.000     0.000    30.000   |c| =    30.000000
 CELL_REF| Angle (b,c), alpha [degree]:                                90.000000
 CELL_REF| Angle (a,c), beta  [degree]:                                90.000000
 CELL_REF| Angle (a,b), gamma [degree]:                                90.000000
 CELL_REF| Numerically orthorhombic:                                         YES
 CELL_REF| Periodicity                                                      NONE

 *******************************************************************************
 *******************************************************************************
 **                                                                           **
 **     #####                         ##              ##                      **
 **    ##   ##            ##          ##              ##                      **
 **   ##     ##                       ##            ######                    **
 **   ##     ##  ##   ##  ##   #####  ##  ##   ####   ##    #####    #####    **
 **   ##     ##  ##   ##  ##  ##      ## ##   ##      ##   ##   ##  ##   ##   **
 **   ##  ## ##  ##   ##  ##  ##      ####     ###    ##   ######   ######    **
 **    ##  ###   ##   ##  ##  ##      ## ##      ##   ##   ##       ##        **
 **     #######   #####   ##   #####  ##  ##  ####    ##    #####   ##        **
 **           ##                                                    ##        **
 **                                                                           **
 **                                                ... make the atoms dance   **
 **                                                                           **
 **            Copyright (C) by CP2K developers group (2000-2025)             **
 **                      J. Chem. Phys. 152, 194103 (2020)                    **
 **                                                                           **
 *******************************************************************************

 DFT| Spin restricted Kohn-Sham (RKS) calculation                            RKS
 DFT| Multiplicity                                                             1
 DFT| Number of spin states                                                    1
 DFT| Charge                                                                   0
 DFT| Self-interaction correction (SIC)                                       NO
 DFT| Cutoffs: density                                              1.000000E-10
 DFT|          gradient                                             1.000000E-10
 DFT|          tau                                                  1.000000E-10
 DFT|          cutoff_smoothing_range                               0.000000E+00
 DFT| XC density smoothing                                                  NONE
 DFT| XC derivatives                                                          PW

 FUNCTIONAL| PBE:
 FUNCTIONAL| J.P.Perdew, K.Burke, M.Ernzerhof, Phys. Rev. Letter, vol. 77, n 18,
 FUNCTIONAL|  pp. 3865-3868, (1996)sx=0.750sc=1.000{spin unpolarized}           


 QS| Method:                                                                GAPW
 QS| Density plane wave grid type                        NON-SPHERICAL FULLSPACE
 QS| Number of grid levels:                                                    4
 QS| Density cutoff [a.u.]:                                                250.0
 QS| Multi grid cutoff [a.u.]: 1) grid level                               250.0
 QS|                           2) grid level                                83.3
 QS|                           3) grid level                                27.8
 QS|                           4) grid level                                 9.3
 QS| Grid level progression factor:                                          3.0
 QS| Relative density cutoff [a.u.]:                                        50.0
 QS| Interaction thresholds: eps_pgf_orb:                                1.0E-12
 QS|                         eps_filter_matrix:                          0.0E+00
 QS|                         eps_core_charge:                            1.0E-14
 QS|                         eps_rho_gspace:                             1.0E-12
 QS|                         eps_rho_rspace:                             1.0E-12
 QS|                         eps_gvg_rspace:                             1.0E-06
 QS|                         eps_ppl:                                    1.0E-02
 QS|                         eps_ppnl:                                   1.0E-08
 QS| GAPW|      One center basis from orbital basis primitives
 QS| GAPW|                   eps_fit:                                    1.0E-04
 QS| GAPW|                   eps_iso:                                    1.0E-12
 QS| GAPW|                   eps_svd:                                    1.0E-08
 QS| GAPW|                   eps_cpc:                                    1.0E-12
 QS| GAPW|   atom-r-grid: quadrature:                                     GC_LOG
 QS| GAPW|      atom-s-grid:  max l :                                          8
 QS| GAPW|      max_l_rho0 :                                                   2


 ATOMIC KIND INFORMATION

  1. Atomic kind: B                                     Number of atoms:       2

     Orbital Basis Set                                               aug-cc-pVQZ

       Number of orbital shell sets:                                          10
       Number of orbital shells:                                              20
       Number of primitive Cartesian functions:                               29
       Number of Cartesian basis functions:                                  105
       Number of spherical basis functions:                                   80
       Norm type:                                                              2

       Normalised Cartesian orbitals:

                        Set   Shell   Orbital            Exponent    Coefficient

                          1       1    1px               0.018780       0.009910
                          1       1    1py               0.018780       0.009910
                          1       1    1pz               0.018780       0.009910

                          2       1    1s                0.027210       0.047748

                          3       1    1dx2              0.046600       0.007693
                          3       1    1dxy              0.046600       0.013324
                          3       1    1dxz              0.046600       0.013324
                          3       1    1dy2              0.046600       0.007693
                          3       1    1dyz              0.046600       0.013324
                          3       1    1dz2              0.046600       0.007693

                          4       1    1px              22.260000       0.000000
                                                         5.058000       0.000000
                                                         1.487000       0.000000
                                                         0.507100       0.609968
                                                         0.181200       0.000000
                                                         0.064630       0.000000
                          4       1    1py              22.260000       0.000000
                                                         5.058000       0.000000
                                                         1.487000       0.000000
                                                         0.507100       0.609968
                                                         0.181200       0.000000
                                                         0.064630       0.000000
                          4       1    1pz              22.260000       0.000000
                                                         5.058000       0.000000
                                                         1.487000       0.000000
                                                         0.507100       0.609968
                                                         0.181200       0.000000
                                                         0.064630       0.000000

                          4       2    2px              22.260000       0.351148
                                                         5.058000       0.359030
                                                         1.487000       0.309695
                                                         0.507100       0.202398
                                                         0.181200       0.079550
                                                         0.064630       0.011983
                          4       2    2py              22.260000       0.351148
                                                         5.058000       0.359030
                                                         1.487000       0.309695
                                                         0.507100       0.202398
                                                         0.181200       0.079550
                                                         0.064630       0.011983
                          4       2    2pz              22.260000       0.351148
                                                         5.058000       0.359030
                                                         1.487000       0.309695
                                                         0.507100       0.202398
                                                         0.181200       0.079550
                                                         0.064630       0.011983

                          4       3    3px              22.260000       0.000000
                                                         5.058000       0.000000
                                                         1.487000       0.000000
                                                         0.507100       0.000000
                                                         0.181200       0.168515
                                                         0.064630       0.000000
                          4       3    3py              22.260000       0.000000
                                                         5.058000       0.000000
                                                         1.487000       0.000000
                                                         0.507100       0.000000
                                                         0.181200       0.168515
                                                         0.064630       0.000000
                          4       3    3pz              22.260000       0.000000
                                                         5.058000       0.000000
                                                         1.487000       0.000000
                                                         0.507100       0.000000
                                                         0.181200       0.168515
                                                         0.064630       0.000000

                          4       4    4px              22.260000       0.000000
                                                         5.058000       0.000000
                                                         1.487000       0.000000
                                                         0.507100       0.000000
                                                         0.181200       0.000000
                                                         0.064630       0.046450
                          4       4    4py              22.260000       0.000000
                                                         5.058000       0.000000
                                                         1.487000       0.000000
                                                         0.507100       0.000000
                                                         0.181200       0.000000
                                                         0.064630       0.046450
                          4       4    4pz              22.260000       0.000000
                                                         5.058000       0.000000
                                                         1.487000       0.000000
                                                         0.507100       0.000000
                                                         0.181200       0.000000
                                                         0.064630       0.046450

                          5       1    1s            23870.000000       0.120443
                                                      3575.000000       0.226373
                                                       812.800000       0.390571
                                                       229.700000       0.628627
                                                        74.690000       0.931356
                                                        26.810000       1.203331
                                                        10.320000       1.234931
                                                         4.178000       0.840442
                                                         1.727000       0.241946
                                                         0.470400       0.006237
                                                         0.189600      -0.000810
                                                         0.073940       0.000114

                          5       2    2s            23870.000000       0.000000
                                                      3575.000000       0.000000
                                                       812.800000       0.000000
                                                       229.700000       0.000000
                                                        74.690000       0.000000
                                                        26.810000       0.000000
                                                        10.320000       0.000000
                                                         4.178000       0.000000
                                                         1.727000       0.000000
                                                         0.470400       0.404819
                                                         0.189600       0.000000
                                                         0.073940       0.000000

                          5       3    3s            23870.000000       0.000000
                                                      3575.000000       0.000000
                                                       812.800000       0.000000
                                                       229.700000       0.000000
                                                        74.690000       0.000000
                                                        26.810000       0.000000
                                                        10.320000       0.000000
                                                         4.178000       0.000000
                                                         1.727000       0.000000
                                                         0.470400       0.000000
                                                         0.189600       0.204781
                                                         0.073940       0.000000

                          5       4    4s            23870.000000      -0.024636
                                                      3575.000000      -0.045802
                                                       812.800000      -0.078657
                                                       229.700000      -0.128804
                                                        74.690000      -0.191595
                                                        26.810000      -0.263377
                                                        10.320000      -0.291408
                                                         4.178000      -0.275137
                                                         1.727000      -0.132141
                                                         0.470400       0.105989
                                                         0.189600       0.120137
                                                         0.073940       0.029357

                          5       5    5s            23870.000000       0.000000
                                                      3575.000000       0.000000
                                                       812.800000       0.000000
                                                       229.700000       0.000000
                                                        74.690000       0.000000
                                                        26.810000       0.000000
                                                        10.320000       0.000000
                                                         4.178000       0.000000
                                                         1.727000       0.000000
                                                         0.470400       0.000000
                                                         0.189600       0.000000
                                                         0.073940       0.101058

                          6       1    1fx3              0.113000       0.010899
                          6       1    1fx2y             0.113000       0.024371
                          6       1    1fx2z             0.113000       0.024371
                          6       1    1fxy2             0.113000       0.024371
                          6       1    1fxyz             0.113000       0.042211
                          6       1    1fxz2             0.113000       0.024371
                          6       1    1fy3              0.113000       0.010899
                          6       1    1fy2z             0.113000       0.024371
                          6       1    1fyz2             0.113000       0.024371
                          6       1    1fz3              0.113000       0.010899

                          7       1    1dx2              1.110000       1.975717
                                                         0.402000       0.000000
                                                         0.145000       0.000000
                          7       1    1dxy              1.110000       3.422042
                                                         0.402000       0.000000
                                                         0.145000       0.000000
                          7       1    1dxz              1.110000       3.422042
                                                         0.402000       0.000000
                                                         0.145000       0.000000
                          7       1    1dy2              1.110000       1.975717
                                                         0.402000       0.000000
                                                         0.145000       0.000000
                          7       1    1dyz              1.110000       3.422042
                                                         0.402000       0.000000
                                                         0.145000       0.000000
                          7       1    1dz2              1.110000       1.975717
                                                         0.402000       0.000000
                                                         0.145000       0.000000

                          7       2    2dx2              1.110000       0.000000
                                                         0.402000       0.334045
                                                         0.145000       0.000000
                          7       2    2dxy              1.110000       0.000000
                                                         0.402000       0.578583
                                                         0.145000       0.000000
                          7       2    2dxz              1.110000       0.000000
                                                         0.402000       0.578583
                                                         0.145000       0.000000
                          7       2    2dy2              1.110000       0.000000
                                                         0.402000       0.334045
                                                         0.145000       0.000000
                          7       2    2dyz              1.110000       0.000000
                                                         0.402000       0.578583
                                                         0.145000       0.000000
                          7       2    2dz2              1.110000       0.000000
                                                         0.402000       0.334045
                                                         0.145000       0.000000

                          7       3    3dx2              1.110000       0.000000
                                                         0.402000       0.000000
                                                         0.145000       0.056079
                          7       3    3dxy              1.110000       0.000000
                                                         0.402000       0.000000
                                                         0.145000       0.097132
                          7       3    3dxz              1.110000       0.000000
                                                         0.402000       0.000000
                                                         0.145000       0.097132
                          7       3    3dy2              1.110000       0.000000
                                                         0.402000       0.000000
                                                         0.145000       0.056079
                          7       3    3dyz              1.110000       0.000000
                                                         0.402000       0.000000
                                                         0.145000       0.097132
                          7       3    3dz2              1.110000       0.000000
                                                         0.402000       0.000000
                                                         0.145000       0.056079

                          8       1    1gx4              0.273000       0.031324
                          8       1    1gx3y             0.273000       0.082877
                          8       1    1gx3z             0.273000       0.082877
                          8       1    1gx2y2            0.273000       0.106993
                          8       1    1gx2yz            0.273000       0.185318
                          8       1    1gx2z2            0.273000       0.106993
                          8       1    1gxy3             0.273000       0.082877
                          8       1    1gxy2z            0.273000       0.185318
                          8       1    1gxyz2            0.273000       0.185318
                          8       1    1gxz3             0.273000       0.082877
                          8       1    1gy4              0.273000       0.031324
                          8       1    1gy3z             0.273000       0.082877
                          8       1    1gy2z2            0.273000       0.106993
                          8       1    1gyz3             0.273000       0.082877
                          8       1    1gz4              0.273000       0.031324

                          9       1    1fx3              0.882000       1.109836
                                                         0.311000       0.000000
                          9       1    1fx2y             0.882000       2.481669
                                                         0.311000       0.000000
                          9       1    1fx2z             0.882000       2.481669
                                                         0.311000       0.000000
                          9       1    1fxy2             0.882000       2.481669
                                                         0.311000       0.000000
                          9       1    1fxyz             0.882000       4.298376
                                                         0.311000       0.000000
                          9       1    1fxz2             0.882000       2.481669
                                                         0.311000       0.000000
                          9       1    1fy3              0.882000       1.109836
                                                         0.311000       0.000000
                          9       1    1fy2z             0.882000       2.481669
                                                         0.311000       0.000000
                          9       1    1fyz2             0.882000       2.481669
                                                         0.311000       0.000000
                          9       1    1fz3              0.882000       1.109836
                                                         0.311000       0.000000

                          9       2    2fx3              0.882000       0.000000
                                                         0.311000       0.106332
                          9       2    2fx2y             0.882000       0.000000
                                                         0.311000       0.237766
                          9       2    2fx2z             0.882000       0.000000
                                                         0.311000       0.237766
                          9       2    2fxy2             0.882000       0.000000
                                                         0.311000       0.237766
                          9       2    2fxyz             0.882000       0.000000
                                                         0.311000       0.411823
                          9       2    2fxz2             0.882000       0.000000
                                                         0.311000       0.237766
                          9       2    2fy3              0.882000       0.000000
                                                         0.311000       0.106332
                          9       2    2fy2z             0.882000       0.000000
                                                         0.311000       0.237766
                          9       2    2fyz2             0.882000       0.000000
                                                         0.311000       0.237766
                          9       2    2fz3              0.882000       0.000000
                                                         0.311000       0.106332

                         10       1    1gx4              0.673000       0.374522
                         10       1    1gx3y             0.673000       0.990891
                         10       1    1gx3z             0.673000       0.990891
                         10       1    1gx2y2            0.673000       1.279235
                         10       1    1gx2yz            0.673000       2.215700
                         10       1    1gx2z2            0.673000       1.279235
                         10       1    1gxy3             0.673000       0.990891
                         10       1    1gxy2z            0.673000       2.215700
                         10       1    1gxyz2            0.673000       2.215700
                         10       1    1gxz3             0.673000       0.990891
                         10       1    1gy4              0.673000       0.374522
                         10       1    1gy3z             0.673000       0.990891
                         10       1    1gy2z2            0.673000       1.279235
                         10       1    1gyz3             0.673000       0.990891
                         10       1    1gz4              0.673000       0.374522

     RI Auxiliary Basis Set                                    aug-cc-pVQZ-OPTRI

       Number of orbital shell sets:                                          19
       Number of orbital shells:                                              19
       Number of primitive Cartesian functions:                               19
       Number of Cartesian basis functions:                                  124
       Number of spherical basis functions:                                   89
       Norm type:                                                              2

       Normalised Cartesian orbitals:

                        Set   Shell   Orbital            Exponent    Coefficient

                          1       1    1px               0.028181       0.016458
                          1       1    1py               0.028181       0.016458
                          1       1    1pz               0.028181       0.016458

                          2       1    1s                0.047837       0.072901

                          3       1    1dx2              0.071125       0.016123
                          3       1    1dxy              0.071125       0.027926
                          3       1    1dxz              0.071125       0.027926
                          3       1    1dy2              0.071125       0.016123
                          3       1    1dyz              0.071125       0.027926
                          3       1    1dz2              0.071125       0.016123

                          4       1    1px               0.096867       0.077030
                          4       1    1py               0.096867       0.077030
                          4       1    1pz               0.096867       0.077030

                          5       1    1s                0.122949       0.147980

                          6       1    1fx3              0.207583       0.042819
                          6       1    1fx2y             0.207583       0.095746
                          6       1    1fx2z             0.207583       0.095746
                          6       1    1fxy2             0.207583       0.095746
                          6       1    1fxyz             0.207583       0.165837
                          6       1    1fxz2             0.207583       0.095746
                          6       1    1fy3              0.207583       0.042819
                          6       1    1fy2z             0.207583       0.095746
                          6       1    1fyz2             0.207583       0.095746
                          6       1    1fz3              0.207583       0.042819

                          7       1    1dx2              0.259143       0.154919
                          7       1    1dxy              0.259143       0.268327
                          7       1    1dxz              0.259143       0.268327
                          7       1    1dy2              0.259143       0.154919
                          7       1    1dyz              0.259143       0.268327
                          7       1    1dz2              0.259143       0.154919

                          8       1    1s                0.313912       0.298893

                          9       1    1px               0.336201       0.364913
                          9       1    1py               0.336201       0.364913
                          9       1    1pz               0.336201       0.364913

                         10       1    1gx4              0.449602       0.123513
                         10       1    1gx3y             0.449602       0.326785
                         10       1    1gx3z             0.449602       0.326785
                         10       1    1gx2y2            0.449602       0.421878
                         10       1    1gx2yz            0.449602       0.730713
                         10       1    1gx2z2            0.449602       0.421878
                         10       1    1gxy3             0.449602       0.326785
                         10       1    1gxy2z            0.449602       0.730713
                         10       1    1gxyz2            0.449602       0.730713
                         10       1    1gxz3             0.449602       0.326785
                         10       1    1gy4              0.449602       0.123513
                         10       1    1gy3z             0.449602       0.326785
                         10       1    1gy2z2            0.449602       0.421878
                         10       1    1gyz3             0.449602       0.326785
                         10       1    1gz4              0.449602       0.123513

                         11       1    1fx3              0.588390       0.446377
                         11       1    1fx2y             0.588390       0.998128
                         11       1    1fx2z             0.588390       0.998128
                         11       1    1fxy2             0.588390       0.998128
                         11       1    1fxyz             0.588390       1.728809
                         11       1    1fxz2             0.588390       0.998128
                         11       1    1fy3              0.588390       0.446377
                         11       1    1fy2z             0.588390       0.998128
                         11       1    1fyz2             0.588390       0.998128
                         11       1    1fz3              0.588390       0.446377

                         12       1    1dx2              0.602361       0.677890
                         12       1    1dxy              0.602361       1.174139
                         12       1    1dxz              0.602361       1.174139
                         12       1    1dy2              0.602361       0.677890
                         12       1    1dyz              0.602361       1.174139
                         12       1    1dz2              0.602361       0.677890

                         13       1    1hx5              0.771535       0.319338
                         13       1    1hx4y             0.771535       0.958013
                         13       1    1hx4z             0.771535       0.958013
                         13       1    1hx3y2            0.771535       1.463388
                         13       1    1hx3yz            0.771535       2.534663
                         13       1    1hx3z2            0.771535       1.463388
                         13       1    1hx2y3            0.771535       1.463388
                         13       1    1hx2y2z           0.771535       3.272236
                         13       1    1hx2yz2           0.771535       3.272236
                         13       1    1hx2z3            0.771535       1.463388
                         13       1    1hxy4             0.771535       0.958013
                         13       1    1hxy3z            0.771535       2.534663
                         13       1    1hxy2z2           0.771535       3.272236
                         13       1    1hxyz3            0.771535       2.534663
                         13       1    1hxz4             0.771535       0.958013
                         13       1    1hy5              0.771535       0.319338
                         13       1    1hy4z             0.771535       0.958013
                         13       1    1hy3z2            0.771535       1.463388
                         13       1    1hy2z3            0.771535       1.463388
                         13       1    1hyz4             0.771535       0.958013
                         13       1    1hz5              0.771535       0.319338

                         14       1    1px               1.113894       1.631154
                         14       1    1py               1.113894       1.631154
                         14       1    1pz               1.113894       1.631154

                         15       1    1gx4              1.174695       1.732724
                         15       1    1gx3y             1.174695       4.584358
                         15       1    1gx3z             1.174695       4.584358
                         15       1    1gx2y2            1.174695       5.918381
                         15       1    1gx2yz            1.174695      10.250936
                         15       1    1gx2z2            1.174695       5.918381
                         15       1    1gxy3             1.174695       4.584358
                         15       1    1gxy2z            1.174695      10.250936
                         15       1    1gxyz2            1.174695      10.250936
                         15       1    1gxz3             1.174695       4.584358
                         15       1    1gy4              1.174695       1.732724
                         15       1    1gy3z             1.174695       4.584358
                         15       1    1gy2z2            1.174695       5.918381
                         15       1    1gyz3             1.174695       4.584358
                         15       1    1gz4              1.174695       1.732724

                         16       1    1s                1.254695       0.844916

                         17       1    1dx2              1.661603       4.002508
                         17       1    1dxy              1.661603       6.932547
                         17       1    1dxz              1.661603       6.932547
                         17       1    1dy2              1.661603       4.002508
                         17       1    1dyz              1.661603       6.932547
                         17       1    1dz2              1.661603       4.002508

                         18       1    1fx3              2.320429       9.783249
                         18       1    1fx2y             2.320429      21.876009
                         18       1    1fx2z             2.320429      21.876009
                         18       1    1fxy2             2.320429      21.876009
                         18       1    1fxyz             2.320429      37.890359
                         18       1    1fxz2             2.320429      21.876009
                         18       1    1fy3              2.320429       9.783249
                         18       1    1fy2z             2.320429      21.876009
                         18       1    1fyz2             2.320429      21.876009
                         18       1    1fz3              2.320429       9.783249

                         19       1    1px               2.510235       4.503841
                         19       1    1py               2.510235       4.503841
                         19       1    1pz               2.510235       4.503841

       Atomic covalent radius [Angstrom]:                                  0.820

       Atomic van der Waals radius [Angstrom]:                             1.920

     The atoms of this atomic kind are PAW atoms (GAPW):
       Hard Gaussian function radius:                                      1.512
       Rho0 radius:                                                        1.512
       Maximum GTO radius used for PAW projector construction:            24.566

     GAPW Soft Basis Set                                        aug-cc-pVQZ_soft

       Number of orbital shell sets:                                          10
       Number of orbital shells:                                              20
       Number of primitive Cartesian functions:                               19
       Number of Cartesian basis functions:                                  105
       Number of spherical basis functions:                                   80
       Norm type:                                                              2

       Normalised Cartesian orbitals:

                        Set   Shell   Orbital            Exponent    Coefficient

                          1       1    1px               0.018780       0.009910
                          1       1    1py               0.018780       0.009910
                          1       1    1pz               0.018780       0.009910

                          2       1    1s                0.027210       0.047748

                          3       1    1dx2              0.046600       0.007693
                          3       1    1dxy              0.046600       0.013324
                          3       1    1dxz              0.046600       0.013324
                          3       1    1dy2              0.046600       0.007693
                          3       1    1dyz              0.046600       0.013324
                          3       1    1dz2              0.046600       0.007693

                          4       1    1px               1.487000       0.000000
                                                         0.507100       0.609968
                                                         0.181200       0.000000
                                                         0.064630       0.000000
                          4       1    1py               1.487000       0.000000
                                                         0.507100       0.609968
                                                         0.181200       0.000000
                                                         0.064630       0.000000
                          4       1    1pz               1.487000       0.000000
                                                         0.507100       0.609968
                                                         0.181200       0.000000
                                                         0.064630       0.000000

                          4       2    2px               1.487000       0.309695
                                                         0.507100       0.202398
                                                         0.181200       0.079550
                                                         0.064630       0.011983
                          4       2    2py               1.487000       0.309695
                                                         0.507100       0.202398
                                                         0.181200       0.079550
                                                         0.064630       0.011983
                          4       2    2pz               1.487000       0.309695
                                                         0.507100       0.202398
                                                         0.181200       0.079550
                                                         0.064630       0.011983

                          4       3    3px               1.487000       0.000000
                                                         0.507100       0.000000
                                                         0.181200       0.168515
                                                         0.064630       0.000000
                          4       3    3py               1.487000       0.000000
                                                         0.507100       0.000000
                                                         0.181200       0.168515
                                                         0.064630       0.000000
                          4       3    3pz               1.487000       0.000000
                                                         0.507100       0.000000
                                                         0.181200       0.168515
                                                         0.064630       0.000000

                          4       4    4px               1.487000       0.000000
                                                         0.507100       0.000000
                                                         0.181200       0.000000
                                                         0.064630       0.046450
                          4       4    4py               1.487000       0.000000
                                                         0.507100       0.000000
                                                         0.181200       0.000000
                                                         0.064630       0.046450
                          4       4    4pz               1.487000       0.000000
                                                         0.507100       0.000000
                                                         0.181200       0.000000
                                                         0.064630       0.046450

                          5       1    1s                1.727000       0.241946
                                                         0.470400       0.006237
                                                         0.189600      -0.000810
                                                         0.073940       0.000114

                          5       2    2s                1.727000       0.000000
                                                         0.470400       0.404819
                                                         0.189600       0.000000
                                                         0.073940       0.000000

                          5       3    3s                1.727000       0.000000
                                                         0.470400       0.000000
                                                         0.189600       0.204781
                                                         0.073940       0.000000

                          5       4    4s                1.727000      -0.132141
                                                         0.470400       0.105989
                                                         0.189600       0.120137
                                                         0.073940       0.029357

                          5       5    5s                1.727000       0.000000
                                                         0.470400       0.000000
                                                         0.189600       0.000000
                                                         0.073940       0.101058

                          6       1    1fx3              0.113000       0.010899
                          6       1    1fx2y             0.113000       0.024371
                          6       1    1fx2z             0.113000       0.024371
                          6       1    1fxy2             0.113000       0.024371
                          6       1    1fxyz             0.113000       0.042211
                          6       1    1fxz2             0.113000       0.024371
                          6       1    1fy3              0.113000       0.010899
                          6       1    1fy2z             0.113000       0.024371
                          6       1    1fyz2             0.113000       0.024371
                          6       1    1fz3              0.113000       0.010899

                          7       1    1dx2              1.110000       1.975717
                                                         0.402000       0.000000
                                                         0.145000       0.000000
                          7       1    1dxy              1.110000       3.422042
                                                         0.402000       0.000000
                                                         0.145000       0.000000
                          7       1    1dxz              1.110000       3.422042
                                                         0.402000       0.000000
                                                         0.145000       0.000000
                          7       1    1dy2              1.110000       1.975717
                                                         0.402000       0.000000
                                                         0.145000       0.000000
                          7       1    1dyz              1.110000       3.422042
                                                         0.402000       0.000000
                                                         0.145000       0.000000
                          7       1    1dz2              1.110000       1.975717
                                                         0.402000       0.000000
                                                         0.145000       0.000000

                          7       2    2dx2              1.110000       0.000000
                                                         0.402000       0.334045
                                                         0.145000       0.000000
                          7       2    2dxy              1.110000       0.000000
                                                         0.402000       0.578583
                                                         0.145000       0.000000
                          7       2    2dxz              1.110000       0.000000
                                                         0.402000       0.578583
                                                         0.145000       0.000000
                          7       2    2dy2              1.110000       0.000000
                                                         0.402000       0.334045
                                                         0.145000       0.000000
                          7       2    2dyz              1.110000       0.000000
                                                         0.402000       0.578583
                                                         0.145000       0.000000
                          7       2    2dz2              1.110000       0.000000
                                                         0.402000       0.334045
                                                         0.145000       0.000000

                          7       3    3dx2              1.110000       0.000000
                                                         0.402000       0.000000
                                                         0.145000       0.056079
                          7       3    3dxy              1.110000       0.000000
                                                         0.402000       0.000000
                                                         0.145000       0.097132
                          7       3    3dxz              1.110000       0.000000
                                                         0.402000       0.000000
                                                         0.145000       0.097132
                          7       3    3dy2              1.110000       0.000000
                                                         0.402000       0.000000
                                                         0.145000       0.056079
                          7       3    3dyz              1.110000       0.000000
                                                         0.402000       0.000000
                                                         0.145000       0.097132
                          7       3    3dz2              1.110000       0.000000
                                                         0.402000       0.000000
                                                         0.145000       0.056079

                          8       1    1gx4              0.273000       0.031324
                          8       1    1gx3y             0.273000       0.082877
                          8       1    1gx3z             0.273000       0.082877
                          8       1    1gx2y2            0.273000       0.106993
                          8       1    1gx2yz            0.273000       0.185318
                          8       1    1gx2z2            0.273000       0.106993
                          8       1    1gxy3             0.273000       0.082877
                          8       1    1gxy2z            0.273000       0.185318
                          8       1    1gxyz2            0.273000       0.185318
                          8       1    1gxz3             0.273000       0.082877
                          8       1    1gy4              0.273000       0.031324
                          8       1    1gy3z             0.273000       0.082877
                          8       1    1gy2z2            0.273000       0.106993
                          8       1    1gyz3             0.273000       0.082877
                          8       1    1gz4              0.273000       0.031324

                          9       1    1fx3              0.882000       1.109836
                                                         0.311000       0.000000
                          9       1    1fx2y             0.882000       2.481669
                                                         0.311000       0.000000
                          9       1    1fx2z             0.882000       2.481669
                                                         0.311000       0.000000
                          9       1    1fxy2             0.882000       2.481669
                                                         0.311000       0.000000
                          9       1    1fxyz             0.882000       4.298376
                                                         0.311000       0.000000
                          9       1    1fxz2             0.882000       2.481669
                                                         0.311000       0.000000
                          9       1    1fy3              0.882000       1.109836
                                                         0.311000       0.000000
                          9       1    1fy2z             0.882000       2.481669
                                                         0.311000       0.000000
                          9       1    1fyz2             0.882000       2.481669
                                                         0.311000       0.000000
                          9       1    1fz3              0.882000       1.109836
                                                         0.311000       0.000000

                          9       2    2fx3              0.882000       0.000000
                                                         0.311000       0.106332
                          9       2    2fx2y             0.882000       0.000000
                                                         0.311000       0.237766
                          9       2    2fx2z             0.882000       0.000000
                                                         0.311000       0.237766
                          9       2    2fxy2             0.882000       0.000000
                                                         0.311000       0.237766
                          9       2    2fxyz             0.882000       0.000000
                                                         0.311000       0.411823
                          9       2    2fxz2             0.882000       0.000000
                                                         0.311000       0.237766
                          9       2    2fy3              0.882000       0.000000
                                                         0.311000       0.106332
                          9       2    2fy2z             0.882000       0.000000
                                                         0.311000       0.237766
                          9       2    2fyz2             0.882000       0.000000
                                                         0.311000       0.237766
                          9       2    2fz3              0.882000       0.000000
                                                         0.311000       0.106332

                         10       1    1gx4              0.673000       0.374522
                         10       1    1gx3y             0.673000       0.990891
                         10       1    1gx3z             0.673000       0.990891
                         10       1    1gx2y2            0.673000       1.279235
                         10       1    1gx2yz            0.673000       2.215700
                         10       1    1gx2z2            0.673000       1.279235
                         10       1    1gxy3             0.673000       0.990891
                         10       1    1gxy2z            0.673000       2.215700
                         10       1    1gxyz2            0.673000       2.215700
                         10       1    1gxz3             0.673000       0.990891
                         10       1    1gy4              0.673000       0.374522
                         10       1    1gy3z             0.673000       0.990891
                         10       1    1gy2z2            0.673000       1.279235
                         10       1    1gyz3             0.673000       0.990891
                         10       1    1gz4              0.673000       0.374522

     AE Potential information for                                            ALL

       Description:                                       All-electron potential
                                          Krack, Parrinello, PCCP 2, 2105 (2000)

       Gaussian exponent of the core charge distribution:               2.655410
       Electronic configuration (s p d ...):                           4   1   0


 MOLECULE KIND INFORMATION


 All atoms are their own molecule, skipping detailed information


 TOTAL NUMBERS AND MAXIMUM NUMBERS

  Total number of            - Atomic kinds:                                   1
                             - Atoms:                                          2
                             - Shell sets:                                    20
                             - Shells:                                        40
                             - Primitive Cartesian functions:                 58
                             - Cartesian basis functions:                    210
                             - Spherical basis functions:                    160

  Maximum angular momentum of the orbital basis functions:                     4


 MODULE QUICKSTEP: ATOMIC COORDINATES IN ANGSTROM

   Atom Kind Element         X             Y             Z       Z(eff)     Mass
      1    1 B     5     15.793777     15.000000     15.000000   5.0000  10.8110
      2    1 B     5     14.206223     15.000000     15.000000   5.0000  10.8110



 SCF PARAMETERS         Density guess:                                    ATOMIC
                        --------------------------------------------------------
                        max_scf:                                             500
                        max_scf_history:                                       0
                        max_diis:                                              4
                        --------------------------------------------------------
                        eps_scf:                                        1.00E-06
                        eps_scf_history:                                0.00E+00
                        eps_diis:                                       1.00E-01
                        eps_eigval:                                     1.00E-05
                        --------------------------------------------------------
                        level_shift [a.u.]:                             0.000000
                        added MOs                                       155    0
                        --------------------------------------------------------
                        Mixing method:                            BROYDEN_MIXING
                                                charge density mixing in g-space
                        --------------------------------------------------------
                        No outer SCF

 PW_GRID| Information for grid number                                          1
 PW_GRID| Grid distributed over                                    24 processors
 PW_GRID| Real space group dimensions                                    24    1
 PW_GRID| the grid is blocked:                                                NO
 PW_GRID| Cutoff [a.u.]                                                    250.0
 PW_GRID| spherical cutoff:                                                   NO
 PW_GRID|   Bounds   1           -202     202                Points:         405
 PW_GRID|   Bounds   2           -202     202                Points:         405
 PW_GRID|   Bounds   3           -202     202                Points:         405
 PW_GRID| Volume element (a.u.^3)  0.2743E-02     Volume (a.u.^3)    182205.0337
 PW_GRID| Grid span                                                    FULLSPACE
 PW_GRID|   Distribution                         Average         Max         Min
 PW_GRID|   G-Vectors                          2767921.9     2768175     2767770
 PW_GRID|   G-Rays                                6834.4        6835        6834
 PW_GRID|   Real Space Points                  2767921.9     2788425     2624400

 PW_GRID| Information for grid number                                          2
 PW_GRID| Number of the reference grid                                         1
 PW_GRID| Grid distributed over                                    24 processors
 PW_GRID| Real space group dimensions                                    24    1
 PW_GRID| the grid is blocked:                                                NO
 PW_GRID| Cutoff [a.u.]                                                     83.3
 PW_GRID| spherical cutoff:                                                   NO
 PW_GRID|   Bounds   1           -120     119                Points:         240
 PW_GRID|   Bounds   2           -120     119                Points:         240
 PW_GRID|   Bounds   3           -120     119                Points:         240
 PW_GRID| Volume element (a.u.^3)  0.1318E-01     Volume (a.u.^3)    182205.0337
 PW_GRID| Grid span                                                    FULLSPACE
 PW_GRID|   Distribution                         Average         Max         Min
 PW_GRID|   G-Vectors                           576000.0      576240      575760
 PW_GRID|   G-Rays                                2400.0        2401        2399
 PW_GRID|   Real Space Points                   576000.0      576000      576000

 PW_GRID| Information for grid number                                          3
 PW_GRID| Number of the reference grid                                         1
 PW_GRID| Grid distributed over                                    24 processors
 PW_GRID| Real space group dimensions                                    24    1
 PW_GRID| the grid is blocked:                                                NO
 PW_GRID| Cutoff [a.u.]                                                     27.8
 PW_GRID| spherical cutoff:                                                   NO
 PW_GRID|   Bounds   1            -67      67                Points:         135
 PW_GRID|   Bounds   2            -67      67                Points:         135
 PW_GRID|   Bounds   3            -67      67                Points:         135
 PW_GRID| Volume element (a.u.^3)  0.7406E-01     Volume (a.u.^3)    182205.0337
 PW_GRID| Grid span                                                    FULLSPACE
 PW_GRID|   Distribution                         Average         Max         Min
 PW_GRID|   G-Vectors                           102515.6      102735      102330
 PW_GRID|   G-Rays                                 759.4         761         758
 PW_GRID|   Real Space Points                   102515.6      109350       91125

 PW_GRID| Information for grid number                                          4
 PW_GRID| Number of the reference grid                                         1
 PW_GRID| Grid distributed over                                    24 processors
 PW_GRID| Real space group dimensions                                    24    1
 PW_GRID| the grid is blocked:                                                NO
 PW_GRID| Cutoff [a.u.]                                                      9.3
 PW_GRID| spherical cutoff:                                                   NO
 PW_GRID|   Bounds   1            -40      39                Points:          80
 PW_GRID|   Bounds   2            -40      39                Points:          80
 PW_GRID|   Bounds   3            -40      39                Points:          80
 PW_GRID| Volume element (a.u.^3)  0.3559         Volume (a.u.^3)    182205.0337
 PW_GRID| Grid span                                                    FULLSPACE
 PW_GRID|   Distribution                         Average         Max         Min
 PW_GRID|   G-Vectors                            21333.3       21360       21280
 PW_GRID|   G-Rays                                 266.7         267         266
 PW_GRID|   Real Space Points                    21333.3       25600       19200

 POISSON| Solver                                                         WAVELET
 POISSON| Wavelet| Scaling function                                           40
 POISSON| Periodicity                                                       NONE

 RS_GRID| Information for grid number                                          1
 RS_GRID|   Bounds   1           -202     202                Points:         405
 RS_GRID|   Bounds   2           -202     202                Points:         405
 RS_GRID|   Bounds   3           -202     202                Points:         405
 RS_GRID| Real space distribution over                                  4 groups
 RS_GRID| Real space distribution along direction                              2
 RS_GRID| Border size                                                         36
 RS_GRID| Real space distribution over                                  6 groups
 RS_GRID| Real space distribution along direction                              3
 RS_GRID| Border size                                                         36
 RS_GRID|   Distribution                         Average         Max         Min
 RS_GRID|   Planes                                 173.2         174         173
 RS_GRID|   Distribution                         Average         Max         Min
 RS_GRID|   Planes                                 139.5         140         139

 RS_GRID| Information for grid number                                          2
 RS_GRID|   Bounds   1           -120     119                Points:         240
 RS_GRID|   Bounds   2           -120     119                Points:         240
 RS_GRID|   Bounds   3           -120     119                Points:         240
 RS_GRID| Real space distribution over                                  4 groups
 RS_GRID| Real space distribution along direction                              2
 RS_GRID| Border size                                                         40
 RS_GRID| Real space distribution over                                  6 groups
 RS_GRID| Real space distribution along direction                              3
 RS_GRID| Border size                                                         40
 RS_GRID|   Distribution                         Average         Max         Min
 RS_GRID|   Planes                                 140.0         140         140
 RS_GRID|   Distribution                         Average         Max         Min
 RS_GRID|   Planes                                 120.0         120         120

 RS_GRID| Information for grid number                                          3
 RS_GRID|   Bounds   1            -67      67                Points:         135
 RS_GRID|   Bounds   2            -67      67                Points:         135
 RS_GRID|   Bounds   3            -67      67                Points:         135
 RS_GRID| Real space fully replicated
 RS_GRID| Group size                                                           1

 RS_GRID| Information for grid number                                          4
 RS_GRID|   Bounds   1            -40      39                Points:          80
 RS_GRID|   Bounds   2            -40      39                Points:          80
 RS_GRID|   Bounds   3            -40      39                Points:          80
 RS_GRID| Real space fully replicated
 RS_GRID| Group size                                                           1

  HFX_INFO| Replica ID:                                                        1
  HFX_INFO| FRACTION:                                               0.2500000000
  HFX_INFO| Interaction Potential:                                       COULOMB
  HFX_INFO| EPS_SCHWARZ:                                                 1.0E-10
  HFX_INFO| EPS_SCHWARZ_FORCES                                           1.0E-08
  HFX_INFO| EPS_STORAGE_SCALING:                                         1.0E+00
  HFX_INFO| NBINS:                                                            64
  HFX_INFO| BLOCK_SIZE:                                                        1
  HFX_INFO| Number of periodic shells considered:                           NONE
  HFX_INFO| Number of periodic cells considered:                            NONE

 
 RI-RPA| using GPW style
 

 OVERLAP MATRIX CONDITION NUMBER
 1-Norm Condition Number (Estimate)
   CN : |A|*|A^-1|:  1.124E+001 *  6.009E+004   = 6.753E+005  Log(1-CN):  5.8295
 1-Norm and 2-Norm Condition Numbers using Diagonalization
[...]
   418 Broy./Diag. 0.10E+00    5.8     0.09479794       -49.2771816522  7.46E-03
   419 Broy./Diag. 0.10E+00    5.8     0.14580767       -49.2716596070  5.52E-03
   420 Broy./Diag. 0.10E+00    5.9     0.05874505       -49.2643615359  7.30E-03
   421 Broy./Diag. 0.10E+00    5.8     0.05643171       -49.2746856042 -1.03E-02
   422 Broy./Diag. 0.10E+00    5.7     0.05315765       -49.2748355911 -1.50E-04
   423 Broy./Diag. 0.10E+00    5.7     0.04589809       -49.2777991624 -2.96E-03
   424 Broy./Diag. 0.10E+00    5.7     0.07910037       -49.3069783116 -2.92E-02
   425 Broy./Diag. 0.10E+00    5.7     0.11845170       -49.3360370512 -2.91E-02
   426 Broy./Diag. 0.10E+00    5.7     0.08518565       -49.3384979571 -2.46E-03
   427 Broy./Diag. 0.10E+00    5.8     0.06730608       -49.3438455970 -5.35E-03
   428 Broy./Diag. 0.10E+00    5.8     0.08169033       -49.3489254424 -5.08E-03
   429 Broy./Diag. 0.10E+00    6.0     0.09459343       -49.3594334627 -1.05E-02
   430 Broy./Diag. 0.10E+00    5.8     0.09756902       -49.3634909409 -4.06E-03
   431 Broy./Diag. 0.10E+00    5.9     0.08802220       -49.3602423497  3.25E-03
   432 Broy./Diag. 0.10E+00    5.8     0.10347403       -49.3523249095  7.92E-03
   433 Broy./Diag. 0.10E+00    5.8     0.10424910       -49.3433414153  8.98E-03
   434 Broy./Diag. 0.10E+00    5.8     0.09138075       -49.3325821198  1.08E-02
   435 Broy./Diag. 0.10E+00    5.8     0.07360053       -49.3211116813  1.15E-02
   436 Broy./Diag. 0.10E+00    5.8     0.06185485       -49.3129410149  8.17E-03
   437 Broy./Diag. 0.10E+00    5.8     0.05203428       -49.3058209342  7.12E-03
   438 Broy./Diag. 0.10E+00    5.7     0.04633719       -49.3027547725  3.07E-03
   439 Broy./Diag. 0.10E+00    5.7     0.05234689       -49.3051000465 -2.35E-03
   440 Broy./Diag. 0.10E+00    5.7     0.06019654       -49.3027897822  2.31E-03
   441 Broy./Diag. 0.10E+00    5.8     0.06163686       -49.2783419885  2.44E-02
   442 Broy./Diag. 0.10E+00    5.9     0.06487183       -49.2651817909  1.32E-02
   443 Broy./Diag. 0.10E+00    5.8     0.09316201       -49.2636521227  1.53E-03
   444 Broy./Diag. 0.10E+00    5.8     0.08060632       -49.3050036570 -4.14E-02
   445 Broy./Diag. 0.10E+00    5.8     0.19067570       -49.3365197600 -3.15E-02
   446 Broy./Diag. 0.10E+00    5.8     0.11908520       -49.3466078001 -1.01E-02
   447 Broy./Diag. 0.10E+00    5.7     0.09223983       -49.3333743316  1.32E-02
   448 Broy./Diag. 0.10E+00    5.8     0.06254651       -49.3625945233 -2.92E-02
   449 Broy./Diag. 0.10E+00    5.7     0.11148859       -49.3559593267  6.64E-03
   450 Broy./Diag. 0.10E+00    5.8     0.08122662       -49.3342737027  2.17E-02
   451 Broy./Diag. 0.10E+00    5.7     0.13753492       -49.3273110869  6.96E-03
   452 Broy./Diag. 0.10E+00    5.7     0.09139856       -49.3407643252 -1.35E-02
   453 Broy./Diag. 0.10E+00    5.7     0.09396011       -49.3566451820 -1.59E-02
   454 Broy./Diag. 0.10E+00    5.7     0.12917546       -49.3531061850  3.54E-03
   455 Broy./Diag. 0.10E+00    5.8     0.04411549       -49.3742275270 -2.11E-02
   456 Broy./Diag. 0.10E+00    5.8     0.05323112       -49.3615024473  1.27E-02
   457 Broy./Diag. 0.10E+00    5.9     0.06778683       -49.3538168349  7.69E-03
   458 Broy./Diag. 0.10E+00    5.8     0.03512470       -49.3414364369  1.24E-02
   459 Broy./Diag. 0.10E+00    5.8     0.02276112       -49.3401071997  1.33E-03
   460 Broy./Diag. 0.10E+00    5.8     0.06902065       -49.3147894449  2.53E-02
   461 Broy./Diag. 0.10E+00    5.8     0.06503703       -49.2890016926  2.58E-02
   462 Broy./Diag. 0.10E+00    5.7     0.19928598       -49.2640108730  2.50E-02
   463 Broy./Diag. 0.10E+00    5.7     0.22942394       -49.3206457452 -5.66E-02
   464 Broy./Diag. 0.10E+00    5.8     0.10654943       -49.3511532514 -3.05E-02
   465 Broy./Diag. 0.10E+00    5.7     0.05952618       -49.3507797167  3.74E-04
   466 Broy./Diag. 0.10E+00    5.7     0.05531600       -49.3483861181  2.39E-03
   467 Broy./Diag. 0.10E+00    5.7     0.06606816       -49.3385526623  9.83E-03
   468 Broy./Diag. 0.10E+00    5.7     0.06856837       -49.3368248873  1.73E-03
   469 Broy./Diag. 0.10E+00    5.8     0.08992310       -49.3348392935  1.99E-03
   470 Broy./Diag. 0.10E+00    5.8     0.09123186       -49.3323264273  2.51E-03
   471 Broy./Diag. 0.10E+00    5.8     0.07191461       -49.3173710605  1.50E-02
   472 Broy./Diag. 0.10E+00    5.8     0.05106811       -49.3241973674 -6.83E-03
   473 Broy./Diag. 0.10E+00    5.8     0.25507612       -49.3503693704 -2.62E-02
   474 Broy./Diag. 0.10E+00    5.8     0.14512390       -49.3607394856 -1.04E-02
   475 Broy./Diag. 0.10E+00    5.8     0.15299974       -49.3420162464  1.87E-02
   476 Broy./Diag. 0.10E+00    5.7     0.12849602       -49.3518721930 -9.86E-03
   477 Broy./Diag. 0.10E+00    5.8     0.09555761       -49.3469547541  4.92E-03
   478 Broy./Diag. 0.10E+00    5.7     0.06843120       -49.3262034816  2.08E-02
   479 Broy./Diag. 0.10E+00    5.7     0.05056490       -49.3204483343  5.76E-03
   480 Broy./Diag. 0.10E+00    5.7     0.07458520       -49.3189785362  1.47E-03
   481 Broy./Diag. 0.10E+00    5.7     0.05469104       -49.3151143742  3.86E-03
   482 Broy./Diag. 0.10E+00    5.7     0.04880892       -49.3097135115  5.40E-03
   483 Broy./Diag. 0.10E+00    5.8     0.07419982       -49.3179294951 -8.22E-03
   484 Broy./Diag. 0.10E+00    5.8     0.05845502       -49.3159081164  2.02E-03
   485 Broy./Diag. 0.10E+00    5.9     0.04447241       -49.3112531505  4.65E-03
   486 Broy./Diag. 0.10E+00    5.8     0.08944811       -49.3080888938  3.16E-03
   487 Broy./Diag. 0.10E+00    5.8     0.07431672       -49.3010473615  7.04E-03
   488 Broy./Diag. 0.10E+00    5.8     0.09354888       -49.2989802367  2.07E-03
   489 Broy./Diag. 0.10E+00    5.8     0.13177851       -49.2937781032  5.20E-03
   490 Broy./Diag. 0.10E+00    5.8     0.16899859       -49.2859752309  7.80E-03
   491 Broy./Diag. 0.10E+00    5.7     0.17787008       -49.2856448814  3.30E-04
   492 Broy./Diag. 0.10E+00    5.7     0.14859233       -49.2818616492  3.78E-03
   493 Broy./Diag. 0.10E+00    5.7     0.10574146       -49.2787703157  3.09E-03
   494 Broy./Diag. 0.10E+00    5.8     0.09435035       -49.2767573068  2.01E-03
   495 Broy./Diag. 0.10E+00    5.8     0.08406085       -49.2745027611  2.25E-03
   496 Broy./Diag. 0.10E+00    5.7     0.12832634       -49.2737881454  7.15E-04
   497 Broy./Diag. 0.10E+00    5.8     0.15851728       -49.2918433161 -1.81E-02
   498 Broy./Diag. 0.10E+00    5.8     0.05969840       -49.2945193707 -2.68E-03
   499 Broy./Diag. 0.10E+00    5.9     0.05370401       -49.2789796445  1.55E-02
   500 Broy./Diag. 0.10E+00    5.8     0.06362549       -49.2664802264  1.25E-02

  Leaving inner SCF loop after reaching   500 steps.


  Electronic density on regular grids:         -6.2642358345        3.7357641655
  Core density on regular grids:               10.0000000000        0.0000000000
  Hard and soft densities (Lebedev):          -17.9017336389      -14.1637440092
  Total Rho_soft + Rho1_hard - Rho1_soft      -10.0022254642
  Total charge density (r-space):              -0.0022254642
  Total Rho_soft + Rho0_soft (g-space):        -0.0022254984

  Overlap energy of the core charge distribution:               0.00000845868521
  Self energy of the core charge distribution:                -32.50467561761386
  Core Hamiltonian energy:                                    -13.42442960230997
  Hartree energy:                                              11.47790109326578
  Exchange-correlation energy:                                 -1.50316471188938
  Hartree-Fock Exchange energy:                                -1.88433006194045

  GAPW| Exc from hard and soft atomic rho1:                    -4.41707657519456
  GAPW| local Eh = 1 center integrals:                         -7.01071320938972

  Total energy:                                               -49.26648022638695

 *******************************************************************************
 *   ___                                                                       *
 *  /   \                                                                      *
 * [ABORT]                                                                     *
 *  \___/     SCF run NOT converged. To continue the calculation regardless,   *
 *    |             please set the keyword IGNORE_CONVERGENCE_FAILURE.         *
 *  O/|                                                                        *
 * /| |                                                                        *
 * / \                                                            qs_scf.F:611 *
 *******************************************************************************


 ===== Routine Calling Stack ===== 

            3 scf_env_do_scf
            2 qs_energies
            1 CP2K

 *******************************************************************************
 *   ___                                                                       *
 *  /   \                                                                      *
 * [ABORT]                                                                     *
 *  \___/     SCF run NOT converged. To continue the calculation regardless,   *
 *    |             please set the keyword IGNORE_CONVERGENCE_FAILURE.         *
 *  O/|                                                                        *
 * /| |                                                                        *
 * / \                                                            qs_scf.F:611 *
 *******************************************************************************


 ===== Routine Calling Stack ===== 

            3 scf_env_do_scf
            2 qs_energies
            1 CP2K

 *******************************************************************************
 *   ___                                                                       *
 *  /   \                                                                      *
 * [ABORT]                                                                     *
 *  \___/     SCF run NOT converged. To continue the calculation regardless,   *
 *    |             please set the keyword IGNORE_CONVERGENCE_FAILURE.         *
 *  O/|                                                                        *
 * /| |                                                                        *
 * / \                                                            qs_scf.F:611 *
 *******************************************************************************


 ===== Routine Calling Stack ===== 

            3 scf_env_do_scf
            2 qs_energies
            1 CP2K

 *******************************************************************************
 *   ___                                                                       *
 *  /   \                                                                      *
 * [ABORT]                                                                     *
 *  \___/     SCF run NOT converged. To continue the calculation regardless,   *
 *    |             please set the keyword IGNORE_CONVERGENCE_FAILURE.         *
 *  O/|                                                                        *
 * /| |                                                                        *
 * / \                                                            qs_scf.F:611 *
 *******************************************************************************


 ===== Routine Calling Stack ===== 

            3 scf_env_do_scf
            2 qs_energies
            1 CP2K

 *******************************************************************************
 *   ___                                                                       *
 *  /   \                                                                      *
 * [ABORT]                                                                     *
 *  \___/     SCF run NOT converged. To continue the calculation regardless,   *
 *    |             please set the keyword IGNORE_CONVERGENCE_FAILURE.         *
 *  O/|                                                                        *
 * /| |                                                                        *
 * / \                                                            qs_scf.F:611 *
 *******************************************************************************


 ===== Routine Calling Stack ===== 

            3 scf_env_do_scf
            2 qs_energies
            1 CP2K

 *******************************************************************************
 *   ___                                                                       *
 *  /   \                                                                      *
 * [ABORT]                                                                     *
 *  \___/     SCF run NOT converged. To continue the calculation regardless,   *
 *    |             please set the keyword IGNORE_CONVERGENCE_FAILURE.         *
 *  O/|                                                                        *
 * /| |                                                                        *
 * / \                                                            qs_scf.F:611 *
 *******************************************************************************


 ===== Routine Calling Stack ===== 

            3 scf_env_do_scf
            2 qs_energies
            1 CP2K

 *******************************************************************************
 *   ___                                                                       *
 *  /   \                                                                      *
 * [ABORT]                                                                     *
 *  \___/     SCF run NOT converged. To continue the calculation regardless,   *
 *    |             please set the keyword IGNORE_CONVERGENCE_FAILURE.         *
 *  O/|                                                                        *
 * /| |                                                                        *
 * / \                                                            qs_scf.F:611 *
 *******************************************************************************


 ===== Routine Calling Stack ===== 

            3 scf_env_do_scf
            2 qs_energies
            1 CP2K

 *******************************************************************************
 *   ___                                                                       *
 *  /   \                                                                      *
 * [ABORT]                                                                     *
 *  \___/     SCF run NOT converged. To continue the calculation regardless,   *
 *    |             please set the keyword IGNORE_CONVERGENCE_FAILURE.         *
 *  O/|                                                                        *
 * /| |                                                                        *
 * / \                                                            qs_scf.F:611 *
 *******************************************************************************


 ===== Routine Calling Stack ===== 

            3 scf_env_do_scf
            2 qs_energies
            1 CP2K

 *******************************************************************************
 *   ___                                                                       *
 *  /   \                                                                      *
 * [ABORT]                                                                     *
 *  \___/     SCF run NOT converged. To continue the calculation regardless,   *
 *    |             please set the keyword IGNORE_CONVERGENCE_FAILURE.         *
 *  O/|                                                                        *
 * /| |                                                                        *
 * / \                                                            qs_scf.F:611 *
 *******************************************************************************


 ===== Routine Calling Stack ===== 

            3 scf_env_do_scf
            2 qs_energies
            1 CP2K

 *******************************************************************************
 *   ___                                                                       *
 *  /   \                                                                      *
 * [ABORT]                                                                     *
 *  \___/     SCF run NOT converged. To continue the calculation regardless,   *
 *    |             please set the keyword IGNORE_CONVERGENCE_FAILURE.         *
 *  O/|                                                                        *
 * /| |                                                                        *
 * / \                                                            qs_scf.F:611 *
 *******************************************************************************


 ===== Routine Calling Stack ===== 

            3 scf_env_do_scf
            2 qs_energies
            1 CP2K

 *******************************************************************************
 *   ___                                                                       *
 *  /   \                                                                      *
 * [ABORT]                                                                     *
 *  \___/     SCF run NOT converged. To continue the calculation regardless,   *
 *    |             please set the keyword IGNORE_CONVERGENCE_FAILURE.         *
 *  O/|                                                                        *
 * /| |                                                                        *
 * / \                                                            qs_scf.F:611 *
 *******************************************************************************


 ===== Routine Calling Stack ===== 

            3 scf_env_do_scf
            2 qs_energies
            1 CP2K

 *******************************************************************************
 *   ___                                                                       *
 *  /   \                                                                      *
 * [ABORT]                                                                     *
 *  \___/     SCF run NOT converged. To continue the calculation regardless,   *
 *    |             please set the keyword IGNORE_CONVERGENCE_FAILURE.         *
 *  O/|                                                                        *
 * /| |                                                                        *
 * / \                                                            qs_scf.F:611 *
 *******************************************************************************


 ===== Routine Calling Stack ===== 

            3 scf_env_do_scf
            2 qs_energies
            1 CP2K

 *******************************************************************************
 *   ___                                                                       *
 *  /   \                                                                      *
 * [ABORT]                                                                     *
 *  \___/     SCF run NOT converged. To continue the calculation regardless,   *
 *    |             please set the keyword IGNORE_CONVERGENCE_FAILURE.         *
 *  O/|                                                                        *
 * /| |                                                                        *
 * / \                                                            qs_scf.F:611 *
 *******************************************************************************


 ===== Routine Calling Stack ===== 

            3 scf_env_do_scf
            2 qs_energies
            1 CP2K
