 DBCSR| CPU Multiplication driver                                           BLAS (U)
 DBCSR| Multrec recursion limit                                              512 (U)
 DBCSR| Multiplication stack size                                           1000 (D)
 DBCSR| Maximum elements for images                                    UNLIMITED (U)
 DBCSR| Multiplicative factor virtual images                                   1 (U)
 DBCSR| Use multiplication densification                                       T (D)
 DBCSR| Multiplication size stacks                                             3 (U)
 DBCSR| Use memory pool for CPU allocation                                     F (U)
 DBCSR| Number of 3D layers                                               SINGLE (U)
 DBCSR| Use MPI memory allocation                                              F (U)
 DBCSR| Use RMA algorithm                                                      F (U)
 DBCSR| Use Communication thread                                               T (U)
 DBCSR| Communication thread load                                             75 (D)
 DBCSR| MPI: My process id                                                     0
 DBCSR| MPI: Number of processes                                              24
 DBCSR| OMP: Current number of threads                                         4
 DBCSR| OMP: Max number of threads                                             4
 DBCSR| Split modifier for TAS multiplication algorithm                  1.0E+00 (U)


  **** **** ******  **  PROGRAM STARTED AT               2025-03-13 06:21:49.780
 ***** ** ***  *** **   PROGRAM STARTED ON                          i05r11c05s09
 **    ****   ******    PROGRAM STARTED BY                               di38fab
 ***** **    ** ** **   PROGRAM PROCESS ID                               3885611
  **** **  *******  **  PROGRAM STARTED IN /hppfs/scratch/04/di38fab/05_MOL/W4-1
                                           1+ALK/c2/DZVP/GW+BSE/Np1

 CP2K| version string:                 CP2K version 2025.1 (Development Version)
 CP2K| source code revision number:                                  git:d2e611a
 CP2K| cp2kflags: omp libint fftw3 libxc parallel scalapack max_contr=4         
 CP2K| is freely available from                            https://www.cp2k.org/
 CP2K| Program compiled at                       Thu 06 Mar 2025 05:09:20 PM CET
 CP2K| Program compiled on                                               login02
 CP2K| Program compiled for                                        Supermuc-foss
 CP2K| Data directory path                  /hppfs/work/pn36zo/di38fab/cp2k/data
 CP2K| Input file name                                                    GW.inp

 GLOBAL| Force Environment number                                              1
 GLOBAL| Basis set file name            /hppfs/scratch/04/di38fab/04_TMD/BASIS_A
 GLOBAL| Potential file name            /hppfs/work/pn36zo/di38fab/cp2k/data/ALL
 GLOBAL| MM Potential file name                                     MM_POTENTIAL
 GLOBAL| Coordinate file name                                      __STD_INPUT__
 GLOBAL| Method name                                                        CP2K
 GLOBAL| Project name                                                       MoS2
 GLOBAL| Run type                                                         ENERGY
 GLOBAL| FFT library                                                       FFTW3
 GLOBAL| Diagonalization library                                       ScaLAPACK
 GLOBAL| DGEMM library                                                      BLAS
 GLOBAL| Orthonormality check for eigenvectors                          DISABLED
 GLOBAL| Matrix multiplication library                                 ScaLAPACK
 GLOBAL| All-to-all communication in single precision                          F
 GLOBAL| FFTs using library dependent lengths                                  F
 GLOBAL| Grid backend                                                       AUTO
 GLOBAL| Global print level                                               MEDIUM
 GLOBAL| MPI I/O enabled                                                       T
 GLOBAL| Total number of message passing processes                            24
 GLOBAL| Number of threads for this process                                    4
 GLOBAL| This output is from process                                           0
 GLOBAL| OpenMP stack size per thread (OMP_STACKSIZE)                    default
 GLOBAL| CPU model name             Intel(R) Xeon(R) Platinum 8174 CPU @ 3.10GHz

 MEMORY| system memory details [Kb]
 MEMORY|                        rank 0           min           max       average
 MEMORY| MemTotal             98436604      98436604      98436708      98436656
 MEMORY| MemFree              83867880      83867880      84176896      84022388
 MEMORY| Buffers                     0             0             0             0
 MEMORY| Cached                2406900       2390044       2406900       2398472
 MEMORY| Slab                  1222340       1222340       1232352       1227346
 MEMORY| SReclaimable           272196        271952        272196        272074
 MEMORY| MemLikelyFree        86546976      86546976      86838892      86692934


 *** Fundamental physical constants (SI units) ***

 *** Literature: B. J. Mohr and B. N. Taylor,
 ***             CODATA recommended values of the fundamental physical
 ***             constants: 2006, Web Version 5.1
 ***             http://physics.nist.gov/constants

 Speed of light in vacuum [m/s]                             2.99792458000000E+08
 Magnetic constant or permeability of vacuum [N/A**2]       1.25663706143592E-06
 Electric constant or permittivity of vacuum [F/m]          8.85418781762039E-12
 Planck constant (h) [J*s]                                  6.62606896000000E-34
 Planck constant (h-bar) [J*s]                              1.05457162825177E-34
 Elementary charge [C]                                      1.60217648700000E-19
 Electron mass [kg]                                         9.10938215000000E-31
 Electron g factor [ ]                                     -2.00231930436220E+00
 Proton mass [kg]                                           1.67262163700000E-27
 Fine-structure constant                                    7.29735253760000E-03
 Rydberg constant [1/m]                                     1.09737315685270E+07
 Avogadro constant [1/mol]                                  6.02214179000000E+23
 Boltzmann constant [J/K]                                   1.38065040000000E-23
 Atomic mass unit [kg]                                      1.66053878200000E-27
 Bohr radius [m]                                            5.29177208590000E-11

 *** Conversion factors ***

 [u] -> [a.u.]                                              1.82288848426455E+03
 [Angstrom] -> [Bohr] = [a.u.]                              1.88972613288564E+00
 [a.u.] = [Bohr] -> [Angstrom]                              5.29177208590000E-01
 [a.u.] -> [s]                                              2.41888432650478E-17
 [a.u.] -> [fs]                                             2.41888432650478E-02
 [a.u.] -> [J]                                              4.35974393937059E-18
 [a.u.] -> [N]                                              8.23872205491840E-08
 [a.u.] -> [K]                                              3.15774647902944E+05
 [a.u.] -> [kJ/mol]                                         2.62549961709828E+03
 [a.u.] -> [kcal/mol]                                       6.27509468713739E+02
 [a.u.] -> [Pa]                                             2.94210107994716E+13
 [a.u.] -> [bar]                                            2.94210107994716E+08
 [a.u.] -> [atm]                                            2.90362800883016E+08
 [a.u.] -> [eV]                                             2.72113838565563E+01
 [a.u.] -> [Hz]                                             6.57968392072181E+15
 [a.u.] -> [1/cm] (wave numbers)                            2.19474631370540E+05
 [a.u./Bohr**2] -> [1/cm]                                   5.14048714338585E+03
 

 CELL_TOP| Volume [angstrom^3]:                                     27000.000000
 CELL_TOP| Vector a [angstrom    30.000     0.000     0.000   |a| =    30.000000
 CELL_TOP| Vector b [angstrom     0.000    30.000     0.000   |b| =    30.000000
 CELL_TOP| Vector c [angstrom     0.000     0.000    30.000   |c| =    30.000000
 CELL_TOP| Angle (b,c), alpha [degree]:                                90.000000
 CELL_TOP| Angle (a,c), beta  [degree]:                                90.000000
 CELL_TOP| Angle (a,b), gamma [degree]:                                90.000000
 CELL_TOP| Numerically orthorhombic:                                         YES
 CELL_TOP| Periodicity                                                      NONE

 GENERATE|  Preliminary Number of Bonds generated:                             0
 GENERATE|  Achieved consistency in connectivity generation.

 CELL| Volume [angstrom^3]:                                         27000.000000
 CELL| Vector a [angstrom]:      30.000     0.000     0.000   |a| =    30.000000
 CELL| Vector b [angstrom]:       0.000    30.000     0.000   |b| =    30.000000
 CELL| Vector c [angstrom]:       0.000     0.000    30.000   |c| =    30.000000
 CELL| Angle (b,c), alpha [degree]:                                    90.000000
 CELL| Angle (a,c), beta  [degree]:                                    90.000000
 CELL| Angle (a,b), gamma [degree]:                                    90.000000
 CELL| Numerically orthorhombic:                                             YES
 CELL| Periodicity                                                          NONE

 CELL_REF| Volume [angstrom^3]:                                     27000.000000
 CELL_REF| Vector a [angstrom    30.000     0.000     0.000   |a| =    30.000000
 CELL_REF| Vector b [angstrom     0.000    30.000     0.000   |b| =    30.000000
 CELL_REF| Vector c [angstrom     0.000     0.000    30.000   |c| =    30.000000
 CELL_REF| Angle (b,c), alpha [degree]:                                90.000000
 CELL_REF| Angle (a,c), beta  [degree]:                                90.000000
 CELL_REF| Angle (a,b), gamma [degree]:                                90.000000
 CELL_REF| Numerically orthorhombic:                                         YES
 CELL_REF| Periodicity                                                      NONE

 *******************************************************************************
 *******************************************************************************
 **                                                                           **
 **     #####                         ##              ##                      **
 **    ##   ##            ##          ##              ##                      **
 **   ##     ##                       ##            ######                    **
 **   ##     ##  ##   ##  ##   #####  ##  ##   ####   ##    #####    #####    **
 **   ##     ##  ##   ##  ##  ##      ## ##   ##      ##   ##   ##  ##   ##   **
 **   ##  ## ##  ##   ##  ##  ##      ####     ###    ##   ######   ######    **
 **    ##  ###   ##   ##  ##  ##      ## ##      ##   ##   ##       ##        **
 **     #######   #####   ##   #####  ##  ##  ####    ##    #####   ##        **
 **           ##                                                    ##        **
 **                                                                           **
 **                                                ... make the atoms dance   **
 **                                                                           **
 **            Copyright (C) by CP2K developers group (2000-2025)             **
 **                      J. Chem. Phys. 152, 194103 (2020)                    **
 **                                                                           **
 *******************************************************************************

 DFT| Spin restricted Kohn-Sham (RKS) calculation                            RKS
 DFT| Multiplicity                                                             1
 DFT| Number of spin states                                                    1
 DFT| Charge                                                                   0
 DFT| Self-interaction correction (SIC)                                       NO
 DFT| Cutoffs: density                                              1.000000E-10
 DFT|          gradient                                             1.000000E-10
 DFT|          tau                                                  1.000000E-10
 DFT|          cutoff_smoothing_range                               0.000000E+00
 DFT| XC density smoothing                                                  NONE
 DFT| XC derivatives                                                          PW

 FUNCTIONAL| PBE:
 FUNCTIONAL| J.P.Perdew, K.Burke, M.Ernzerhof, Phys. Rev. Letter, vol. 77, n 18,
 FUNCTIONAL|  pp. 3865-3868, (1996)sx=0.750sc=1.000{spin unpolarized}           


 QS| Method:                                                                GAPW
 QS| Density plane wave grid type                        NON-SPHERICAL FULLSPACE
 QS| Number of grid levels:                                                    4
 QS| Density cutoff [a.u.]:                                                250.0
 QS| Multi grid cutoff [a.u.]: 1) grid level                               250.0
 QS|                           2) grid level                                83.3
 QS|                           3) grid level                                27.8
 QS|                           4) grid level                                 9.3
 QS| Grid level progression factor:                                          3.0
 QS| Relative density cutoff [a.u.]:                                        50.0
 QS| Interaction thresholds: eps_pgf_orb:                                1.0E-12
 QS|                         eps_filter_matrix:                          0.0E+00
 QS|                         eps_core_charge:                            1.0E-14
 QS|                         eps_rho_gspace:                             1.0E-12
 QS|                         eps_rho_rspace:                             1.0E-12
 QS|                         eps_gvg_rspace:                             1.0E-06
 QS|                         eps_ppl:                                    1.0E-02
 QS|                         eps_ppnl:                                   1.0E-08
 QS| GAPW|      One center basis from orbital basis primitives
 QS| GAPW|                   eps_fit:                                    1.0E-04
 QS| GAPW|                   eps_iso:                                    1.0E-12
 QS| GAPW|                   eps_svd:                                    1.0E-08
 QS| GAPW|                   eps_cpc:                                    1.0E-12
 QS| GAPW|   atom-r-grid: quadrature:                                     GC_LOG
 QS| GAPW|      atom-s-grid:  max l :                                          6
 QS| GAPW|      max_l_rho0 :                                                   2


 ATOMIC KIND INFORMATION

  1. Atomic kind: C                                     Number of atoms:       2

     Orbital Basis Set                                        aug-DZVP-MOLOPT-ae

       Number of orbital shell sets:                                           2
       Number of orbital shells:                                              10
       Number of primitive Cartesian functions:                               13
       Number of Cartesian basis functions:                                   35
       Number of spherical basis functions:                                   30
       Norm type:                                                              2

       Normalised Cartesian orbitals:

                        Set   Shell   Orbital            Exponent    Coefficient

                          1       1    2px               0.050000       0.000000
                                                         0.096935       0.005344
                                                         0.300899       0.144116
                                                         0.937529       0.673511
                                                         4.145546       1.425967
                          1       1    2py               0.050000       0.000000
                                                         0.096935       0.005344
                                                         0.300899       0.144116
                                                         0.937529       0.673511
                                                         4.145546       1.425967
                          1       1    2pz               0.050000       0.000000
                                                         0.096935       0.005344
                                                         0.300899       0.144116
                                                         0.937529       0.673511
                                                         4.145546       1.425967

                          1       2    3px               0.050000       0.000000
                                                         0.096935       0.066903
                                                         0.300899       0.082631
                                                         0.937529      -0.414500
                                                         4.145546      -0.833488
                          1       2    3py               0.050000       0.000000
                                                         0.096935       0.066903
                                                         0.300899       0.082631
                                                         0.937529      -0.414500
                                                         4.145546      -0.833488
                          1       2    3pz               0.050000       0.000000
                                                         0.096935       0.066903
                                                         0.300899       0.082631
                                                         0.937529      -0.414500
                                                         4.145546      -0.833488

                          1       3    4px               0.050000       0.052477
                                                         0.096935      -0.149600
                                                         0.300899      -0.031452
                                                         0.937529       0.106528
                                                         4.145546       0.000000
                          1       3    4py               0.050000       0.052477
                                                         0.096935      -0.149600
                                                         0.300899      -0.031452
                                                         0.937529       0.106528
                                                         4.145546       0.000000
                          1       3    4pz               0.050000       0.052477
                                                         0.096935      -0.149600
                                                         0.300899      -0.031452
                                                         0.937529       0.106528
                                                         4.145546       0.000000

                          1       4    3dx2              0.050000       0.000000
                                                         0.096935       0.001258
                                                         0.300899       0.105504
                                                         0.937529       0.830801
                                                         4.145546       0.718979
                          1       4    3dxy              0.050000       0.000000
                                                         0.096935       0.002179
                                                         0.300899       0.182739
                                                         0.937529       1.438990
                                                         4.145546       1.245309
                          1       4    3dxz              0.050000       0.000000
                                                         0.096935       0.002179
                                                         0.300899       0.182739
                                                         0.937529       1.438990
                                                         4.145546       1.245309
                          1       4    3dy2              0.050000       0.000000
                                                         0.096935       0.001258
                                                         0.300899       0.105504
                                                         0.937529       0.830801
                                                         4.145546       0.718979
                          1       4    3dyz              0.050000       0.000000
                                                         0.096935       0.002179
                                                         0.300899       0.182739
                                                         0.937529       1.438990
                                                         4.145546       1.245309
                          1       4    3dz2              0.050000       0.000000
                                                         0.096935       0.001258
                                                         0.300899       0.105504
                                                         0.937529       0.830801
                                                         4.145546       0.718979

                          1       5    4dx2              0.050000      -0.011665
                                                         0.096935       0.057456
                                                         0.300899      -0.258169
                                                         0.937529       0.000000
                                                         4.145546       0.000000
                          1       5    4dxy              0.050000      -0.020204
                                                         0.096935       0.099516
                                                         0.300899      -0.447162
                                                         0.937529       0.000000
                                                         4.145546       0.000000
                          1       5    4dxz              0.050000      -0.020204
                                                         0.096935       0.099516
                                                         0.300899      -0.447162
                                                         0.937529       0.000000
                                                         4.145546       0.000000
                          1       5    4dy2              0.050000      -0.011665
                                                         0.096935       0.057456
                                                         0.300899      -0.258169
                                                         0.937529       0.000000
                                                         4.145546       0.000000
                          1       5    4dyz              0.050000      -0.020204
                                                         0.096935       0.099516
                                                         0.300899      -0.447162
                                                         0.937529       0.000000
                                                         4.145546       0.000000
                          1       5    4dz2              0.050000      -0.011665
                                                         0.096935       0.057456
                                                         0.300899      -0.258169
                                                         0.937529       0.000000
                                                         4.145546       0.000000

                          1       6    4fx3              0.050000      -0.000180
                                                         0.096935       0.008160
                                                         0.300899       0.004002
                                                         0.937529       0.000000
                                                         4.145546       0.000000
                          1       6    4fx2y             0.050000      -0.000402
                                                         0.096935       0.018246
                                                         0.300899       0.008949
                                                         0.937529       0.000000
                                                         4.145546       0.000000
                          1       6    4fx2z             0.050000      -0.000402
                                                         0.096935       0.018246
                                                         0.300899       0.008949
                                                         0.937529       0.000000
                                                         4.145546       0.000000
                          1       6    4fxy2             0.050000      -0.000402
                                                         0.096935       0.018246
                                                         0.300899       0.008949
                                                         0.937529       0.000000
                                                         4.145546       0.000000
                          1       6    4fxyz             0.050000      -0.000696
                                                         0.096935       0.031603
                                                         0.300899       0.015500
                                                         0.937529       0.000000
                                                         4.145546       0.000000
                          1       6    4fxz2             0.050000      -0.000402
                                                         0.096935       0.018246
                                                         0.300899       0.008949
                                                         0.937529       0.000000
                                                         4.145546       0.000000
                          1       6    4fy3              0.050000      -0.000180
                                                         0.096935       0.008160
                                                         0.300899       0.004002
                                                         0.937529       0.000000
                                                         4.145546       0.000000
                          1       6    4fy2z             0.050000      -0.000402
                                                         0.096935       0.018246
                                                         0.300899       0.008949
                                                         0.937529       0.000000
                                                         4.145546       0.000000
                          1       6    4fyz2             0.050000      -0.000402
                                                         0.096935       0.018246
                                                         0.300899       0.008949
                                                         0.937529       0.000000
                                                         4.145546       0.000000
                          1       6    4fz3              0.050000      -0.000180
                                                         0.096935       0.008160
                                                         0.300899       0.004002
                                                         0.937529       0.000000
                                                         4.145546       0.000000

                          2       1    1s                0.060000       0.000000
                                                         0.161278       0.024253
                                                         0.523772      -0.029268
                                                         3.176528       0.666384
                                                        10.501907       2.110671
                                                        40.805234       2.242010
                                                       186.270922       1.801845
                                                      1238.394264      -0.490536

                          2       2    2s                0.060000       0.000000
                                                         0.161278       0.080328
                                                         0.523772       0.279468
                                                         3.176528      -0.079506
                                                        10.501907      -0.033488
                                                        40.805234       0.350132
                                                       186.270922      -0.108171
                                                      1238.394264       0.147138

                          2       3    3s                0.060000       0.000000
                                                         0.161278       0.225687
                                                         0.523772      -0.382710
                                                         3.176528      -0.308205
                                                        10.501907      -0.974990
                                                        40.805234      -2.174132
                                                       186.270922       1.755878
                                                      1238.394264     -12.484315

                          2       4    4s                0.060000      -0.055653
                                                         0.161278      -0.019607
                                                         0.523772       0.500289
                                                         3.176528       0.067234
                                                        10.501907       0.000000
                                                        40.805234       0.000000
                                                       186.270922       0.000000
                                                      1238.394264       0.000000

     RI Auxiliary Basis Set             RI_aug-DZVP-MOLOPT-ae_N_RI_047_s_p_d_f_g

       Number of orbital shell sets:                                          15
       Number of orbital shells:                                              15
       Number of primitive Cartesian functions:                               15
       Number of Cartesian basis functions:                                   56
       Number of spherical basis functions:                                   47
       Norm type:                                                              2

       Normalised Cartesian orbitals:

                        Set   Shell   Orbital            Exponent    Coefficient

                          1       1    1s                0.254842       0.255631

                          2       1   11dx2              0.281937       0.179546
                          2       1   11dxy              0.281937       0.310982
                          2       1   11dxz              0.281937       0.310982
                          2       1   11dy2              0.281937       0.179546
                          2       1   11dyz              0.281937       0.310982
                          2       1   11dz2              0.281937       0.179546

                          3       1    7px               0.299325       0.315587
                          3       1    7py               0.299325       0.315587
                          3       1    7pz               0.299325       0.315587

                          4       1   14fx3              0.339816       0.129793
                          4       1   14fx2y             0.339816       0.290226
                          4       1   14fx2z             0.339816       0.290226
                          4       1   14fxy2             0.339816       0.290226
                          4       1   14fxyz             0.339816       0.502687
                          4       1   14fxz2             0.339816       0.290226
                          4       1   14fy3              0.339816       0.129793
                          4       1   14fy2z             0.339816       0.290226
                          4       1   14fyz2             0.339816       0.290226
                          4       1   14fz3              0.339816       0.129793

                          5       1    2s                0.422589       0.373550

                          6       1   12dx2              0.811931       1.143056
                          6       1   12dxy              0.811931       1.979832
                          6       1   12dxz              0.811931       1.979832
                          6       1   12dy2              0.811931       1.143056
                          6       1   12dyz              0.811931       1.979832
                          6       1   12dz2              0.811931       1.143056

                          7       1    8px               0.939570       1.318564
                          7       1    8py               0.939570       1.318564
                          7       1    8pz               0.939570       1.318564

                          8       1    3s                1.299293       0.867342

                          9       1   15fx3              1.351194       2.897807
                          9       1   15fx2y             1.351194       6.479693
                          9       1   15fx2z             1.351194       6.479693
                          9       1   15fxy2             1.351194       6.479693
                          9       1   15fxyz             1.351194      11.223158
                          9       1   15fxz2             1.351194       6.479693
                          9       1   15fy3              1.351194       2.897807
                          9       1   15fy2z             1.351194       6.479693
                          9       1   15fyz2             1.351194       6.479693
                          9       1   15fz3              1.351194       2.897807

                         10       1   13dx2              2.931213      10.807926
                         10       1   13dxy              2.931213      18.719878
                         10       1   13dxz              2.931213      18.719878
                         10       1   13dy2              2.931213      10.807926
                         10       1   13dyz              2.931213      18.719878
                         10       1   13dz2              2.931213      10.807926

                         11       1    9px               3.357160       6.477465
                         11       1    9py               3.357160       6.477465
                         11       1    9pz               3.357160       6.477465

                         12       1    4s                5.684723       2.623869

                         13       1   10px              16.365239      46.918381
                         13       1   10py              16.365239      46.918381
                         13       1   10pz              16.365239      46.918381

                         14       1    5s               22.016161       7.243797

                         15       1    6s               82.103967      19.439415

       Atomic covalent radius [Angstrom]:                                  0.770

       Atomic van der Waals radius [Angstrom]:                             1.700

     The atoms of this atomic kind are PAW atoms (GAPW):
       Hard Gaussian function radius:                                      1.512
       Rho0 radius:                                                        1.512
       Maximum GTO radius used for PAW projector construction:            24.566

     GAPW Soft Basis Set                                 aug-DZVP-MOLOPT-ae_soft

       Number of orbital shell sets:                                           2
       Number of orbital shells:                                              10
       Number of primitive Cartesian functions:                                9
       Number of Cartesian basis functions:                                   35
       Number of spherical basis functions:                                   30
       Norm type:                                                              2

       Normalised Cartesian orbitals:

                        Set   Shell   Orbital            Exponent    Coefficient

                          1       1    2px               0.050000       0.000000
                                                         0.096935       0.005344
                                                         0.300899       0.144116
                                                         0.937529       0.673511
                                                         4.145546       1.425967
                          1       1    2py               0.050000       0.000000
                                                         0.096935       0.005344
                                                         0.300899       0.144116
                                                         0.937529       0.673511
                                                         4.145546       1.425967
                          1       1    2pz               0.050000       0.000000
                                                         0.096935       0.005344
                                                         0.300899       0.144116
                                                         0.937529       0.673511
                                                         4.145546       1.425967

                          1       2    3px               0.050000       0.000000
                                                         0.096935       0.066903
                                                         0.300899       0.082631
                                                         0.937529      -0.414500
                                                         4.145546      -0.833488
                          1       2    3py               0.050000       0.000000
                                                         0.096935       0.066903
                                                         0.300899       0.082631
                                                         0.937529      -0.414500
                                                         4.145546      -0.833488
                          1       2    3pz               0.050000       0.000000
                                                         0.096935       0.066903
                                                         0.300899       0.082631
                                                         0.937529      -0.414500
                                                         4.145546      -0.833488

                          1       3    4px               0.050000       0.052477
                                                         0.096935      -0.149600
                                                         0.300899      -0.031452
                                                         0.937529       0.106528
                                                         4.145546       0.000000
                          1       3    4py               0.050000       0.052477
                                                         0.096935      -0.149600
                                                         0.300899      -0.031452
                                                         0.937529       0.106528
                                                         4.145546       0.000000
                          1       3    4pz               0.050000       0.052477
                                                         0.096935      -0.149600
                                                         0.300899      -0.031452
                                                         0.937529       0.106528
                                                         4.145546       0.000000

                          1       4    3dx2              0.050000       0.000000
                                                         0.096935       0.001258
                                                         0.300899       0.105504
                                                         0.937529       0.830801
                                                         4.145546       0.718979
                          1       4    3dxy              0.050000       0.000000
                                                         0.096935       0.002179
                                                         0.300899       0.182739
                                                         0.937529       1.438990
                                                         4.145546       1.245309
                          1       4    3dxz              0.050000       0.000000
                                                         0.096935       0.002179
                                                         0.300899       0.182739
                                                         0.937529       1.438990
                                                         4.145546       1.245309
                          1       4    3dy2              0.050000       0.000000
                                                         0.096935       0.001258
                                                         0.300899       0.105504
                                                         0.937529       0.830801
                                                         4.145546       0.718979
                          1       4    3dyz              0.050000       0.000000
                                                         0.096935       0.002179
                                                         0.300899       0.182739
                                                         0.937529       1.438990
                                                         4.145546       1.245309
                          1       4    3dz2              0.050000       0.000000
                                                         0.096935       0.001258
                                                         0.300899       0.105504
                                                         0.937529       0.830801
                                                         4.145546       0.718979

                          1       5    4dx2              0.050000      -0.011665
                                                         0.096935       0.057456
                                                         0.300899      -0.258169
                                                         0.937529       0.000000
                                                         4.145546       0.000000
                          1       5    4dxy              0.050000      -0.020204
                                                         0.096935       0.099516
                                                         0.300899      -0.447162
                                                         0.937529       0.000000
                                                         4.145546       0.000000
                          1       5    4dxz              0.050000      -0.020204
                                                         0.096935       0.099516
                                                         0.300899      -0.447162
                                                         0.937529       0.000000
                                                         4.145546       0.000000
                          1       5    4dy2              0.050000      -0.011665
                                                         0.096935       0.057456
                                                         0.300899      -0.258169
                                                         0.937529       0.000000
                                                         4.145546       0.000000
                          1       5    4dyz              0.050000      -0.020204
                                                         0.096935       0.099516
                                                         0.300899      -0.447162
                                                         0.937529       0.000000
                                                         4.145546       0.000000
                          1       5    4dz2              0.050000      -0.011665
                                                         0.096935       0.057456
                                                         0.300899      -0.258169
                                                         0.937529       0.000000
                                                         4.145546       0.000000

                          1       6    4fx3              0.050000      -0.000180
                                                         0.096935       0.008160
                                                         0.300899       0.004002
                                                         0.937529       0.000000
                                                         4.145546       0.000000
                          1       6    4fx2y             0.050000      -0.000402
                                                         0.096935       0.018246
                                                         0.300899       0.008949
                                                         0.937529       0.000000
                                                         4.145546       0.000000
                          1       6    4fx2z             0.050000      -0.000402
                                                         0.096935       0.018246
                                                         0.300899       0.008949
                                                         0.937529       0.000000
                                                         4.145546       0.000000
                          1       6    4fxy2             0.050000      -0.000402
                                                         0.096935       0.018246
                                                         0.300899       0.008949
                                                         0.937529       0.000000
                                                         4.145546       0.000000
                          1       6    4fxyz             0.050000      -0.000696
                                                         0.096935       0.031603
                                                         0.300899       0.015500
                                                         0.937529       0.000000
                                                         4.145546       0.000000
                          1       6    4fxz2             0.050000      -0.000402
                                                         0.096935       0.018246
                                                         0.300899       0.008949
                                                         0.937529       0.000000
                                                         4.145546       0.000000
                          1       6    4fy3              0.050000      -0.000180
                                                         0.096935       0.008160
                                                         0.300899       0.004002
                                                         0.937529       0.000000
                                                         4.145546       0.000000
                          1       6    4fy2z             0.050000      -0.000402
                                                         0.096935       0.018246
                                                         0.300899       0.008949
                                                         0.937529       0.000000
                                                         4.145546       0.000000
                          1       6    4fyz2             0.050000      -0.000402
                                                         0.096935       0.018246
                                                         0.300899       0.008949
                                                         0.937529       0.000000
                                                         4.145546       0.000000
                          1       6    4fz3              0.050000      -0.000180
                                                         0.096935       0.008160
                                                         0.300899       0.004002
                                                         0.937529       0.000000
                                                         4.145546       0.000000

                          2       1    1s                0.060000       0.000000
                                                         0.161278       0.024253
                                                         0.523772      -0.029268
                                                         3.176528       0.666384

                          2       2    2s                0.060000       0.000000
                                                         0.161278       0.080328
                                                         0.523772       0.279468
                                                         3.176528      -0.079506

                          2       3    3s                0.060000       0.000000
                                                         0.161278       0.225687
                                                         0.523772      -0.382710
                                                         3.176528      -0.308205

                          2       4    4s                0.060000      -0.055653
                                                         0.161278      -0.019607
                                                         0.523772       0.500289
                                                         3.176528       0.067234

     AE Potential information for                                            ALL

       Description:                                       All-electron potential
                                          Krack, Parrinello, PCCP 2, 2105 (2000)

       Gaussian exponent of the core charge distribution:               4.109048
       Electronic configuration (s p d ...):                           4   2   0


 MOLECULE KIND INFORMATION


 All atoms are their own molecule, skipping detailed information


 TOTAL NUMBERS AND MAXIMUM NUMBERS

  Total number of            - Atomic kinds:                                   1
                             - Atoms:                                          2
                             - Shell sets:                                     4
                             - Shells:                                        20
                             - Primitive Cartesian functions:                 26
                             - Cartesian basis functions:                     70
                             - Spherical basis functions:                     60

  Maximum angular momentum of the orbital basis functions:                     3


 MODULE QUICKSTEP: ATOMIC COORDINATES IN ANGSTROM

   Atom Kind Element         X             Y             Z       Z(eff)     Mass
      1    1 C     6     15.620000     15.000000     15.000000   6.0000  12.0107
      2    1 C     6     14.380000     15.000000     15.000000   6.0000  12.0107



 SCF PARAMETERS         Density guess:                                    ATOMIC
                        --------------------------------------------------------
                        max_scf:                                             500
                        max_scf_history:                                       0
                        max_diis:                                              4
                        --------------------------------------------------------
                        eps_scf:                                        1.00E-06
                        eps_scf_history:                                0.00E+00
                        eps_diis:                                       1.00E-01
                        eps_eigval:                                     1.00E-05
                        --------------------------------------------------------
                        level_shift [a.u.]:                             0.000000
                        added MOs                                        54    0
                        --------------------------------------------------------
                        Mixing method:                            BROYDEN_MIXING
                                                charge density mixing in g-space
                        --------------------------------------------------------
                        No outer SCF

 PW_GRID| Information for grid number                                          1
 PW_GRID| Grid distributed over                                    24 processors
 PW_GRID| Real space group dimensions                                    24    1
 PW_GRID| the grid is blocked:                                                NO
 PW_GRID| Cutoff [a.u.]                                                    250.0
 PW_GRID| spherical cutoff:                                                   NO
 PW_GRID|   Bounds   1           -202     202                Points:         405
 PW_GRID|   Bounds   2           -202     202                Points:         405
 PW_GRID|   Bounds   3           -202     202                Points:         405
 PW_GRID| Volume element (a.u.^3)  0.2743E-02     Volume (a.u.^3)    182205.0337
 PW_GRID| Grid span                                                    FULLSPACE
 PW_GRID|   Distribution                         Average         Max         Min
 PW_GRID|   G-Vectors                          2767921.9     2768175     2767770
 PW_GRID|   G-Rays                                6834.4        6835        6834
 PW_GRID|   Real Space Points                  2767921.9     2788425     2624400

 PW_GRID| Information for grid number                                          2
 PW_GRID| Number of the reference grid                                         1
 PW_GRID| Grid distributed over                                    24 processors
 PW_GRID| Real space group dimensions                                    24    1
 PW_GRID| the grid is blocked:                                                NO
 PW_GRID| Cutoff [a.u.]                                                     83.3
 PW_GRID| spherical cutoff:                                                   NO
 PW_GRID|   Bounds   1           -120     119                Points:         240
 PW_GRID|   Bounds   2           -120     119                Points:         240
 PW_GRID|   Bounds   3           -120     119                Points:         240
 PW_GRID| Volume element (a.u.^3)  0.1318E-01     Volume (a.u.^3)    182205.0337
 PW_GRID| Grid span                                                    FULLSPACE
 PW_GRID|   Distribution                         Average         Max         Min
 PW_GRID|   G-Vectors                           576000.0      576240      575760
 PW_GRID|   G-Rays                                2400.0        2401        2399
 PW_GRID|   Real Space Points                   576000.0      576000      576000

 PW_GRID| Information for grid number                                          3
 PW_GRID| Number of the reference grid                                         1
 PW_GRID| Grid distributed over                                    24 processors
 PW_GRID| Real space group dimensions                                    24    1
 PW_GRID| the grid is blocked:                                                NO
 PW_GRID| Cutoff [a.u.]                                                     27.8
 PW_GRID| spherical cutoff:                                                   NO
 PW_GRID|   Bounds   1            -67      67                Points:         135
 PW_GRID|   Bounds   2            -67      67                Points:         135
 PW_GRID|   Bounds   3            -67      67                Points:         135
 PW_GRID| Volume element (a.u.^3)  0.7406E-01     Volume (a.u.^3)    182205.0337
 PW_GRID| Grid span                                                    FULLSPACE
 PW_GRID|   Distribution                         Average         Max         Min
 PW_GRID|   G-Vectors                           102515.6      102735      102330
 PW_GRID|   G-Rays                                 759.4         761         758
 PW_GRID|   Real Space Points                   102515.6      109350       91125

 PW_GRID| Information for grid number                                          4
 PW_GRID| Number of the reference grid                                         1
 PW_GRID| Grid distributed over                                    24 processors
 PW_GRID| Real space group dimensions                                    24    1
 PW_GRID| the grid is blocked:                                                NO
 PW_GRID| Cutoff [a.u.]                                                      9.3
 PW_GRID| spherical cutoff:                                                   NO
 PW_GRID|   Bounds   1            -40      39                Points:          80
 PW_GRID|   Bounds   2            -40      39                Points:          80
 PW_GRID|   Bounds   3            -40      39                Points:          80
 PW_GRID| Volume element (a.u.^3)  0.3559         Volume (a.u.^3)    182205.0337
 PW_GRID| Grid span                                                    FULLSPACE
 PW_GRID|   Distribution                         Average         Max         Min
 PW_GRID|   G-Vectors                            21333.3       21360       21280
 PW_GRID|   G-Rays                                 266.7         267         266
 PW_GRID|   Real Space Points                    21333.3       25600       19200

 POISSON| Solver                                                         WAVELET
 POISSON| Wavelet| Scaling function                                           40
 POISSON| Periodicity                                                       NONE

 RS_GRID| Information for grid number                                          1
 RS_GRID|   Bounds   1           -202     202                Points:         405
 RS_GRID|   Bounds   2           -202     202                Points:         405
 RS_GRID|   Bounds   3           -202     202                Points:         405
 RS_GRID| Real space distribution over                                  4 groups
 RS_GRID| Real space distribution along direction                              2
 RS_GRID| Border size                                                         35
 RS_GRID| Real space distribution over                                  6 groups
 RS_GRID| Real space distribution along direction                              3
 RS_GRID| Border size                                                         35
 RS_GRID|   Distribution                         Average         Max         Min
 RS_GRID|   Planes                                 171.2         172         171
 RS_GRID|   Distribution                         Average         Max         Min
 RS_GRID|   Planes                                 137.5         138         137

 RS_GRID| Information for grid number                                          2
 RS_GRID|   Bounds   1           -120     119                Points:         240
 RS_GRID|   Bounds   2           -120     119                Points:         240
 RS_GRID|   Bounds   3           -120     119                Points:         240
 RS_GRID| Real space distribution over                                  4 groups
 RS_GRID| Real space distribution along direction                              2
 RS_GRID| Border size                                                         38
 RS_GRID| Real space distribution over                                  6 groups
 RS_GRID| Real space distribution along direction                              3
 RS_GRID| Border size                                                         38
 RS_GRID|   Distribution                         Average         Max         Min
 RS_GRID|   Planes                                 136.0         136         136
 RS_GRID|   Distribution                         Average         Max         Min
 RS_GRID|   Planes                                 116.0         116         116

 RS_GRID| Information for grid number                                          3
 RS_GRID|   Bounds   1            -67      67                Points:         135
 RS_GRID|   Bounds   2            -67      67                Points:         135
 RS_GRID|   Bounds   3            -67      67                Points:         135
 RS_GRID| Real space fully replicated
 RS_GRID| Group size                                                           1

 RS_GRID| Information for grid number                                          4
 RS_GRID|   Bounds   1            -40      39                Points:          80
 RS_GRID|   Bounds   2            -40      39                Points:          80
 RS_GRID|   Bounds   3            -40      39                Points:          80
 RS_GRID| Real space fully replicated
 RS_GRID| Group size                                                           1

  HFX_INFO| Replica ID:                                                        1
  HFX_INFO| FRACTION:                                               0.2500000000
  HFX_INFO| Interaction Potential:                                       COULOMB
  HFX_INFO| EPS_SCHWARZ:                                                 1.0E-10
  HFX_INFO| EPS_SCHWARZ_FORCES                                           1.0E-08
  HFX_INFO| EPS_STORAGE_SCALING:                                         1.0E+00
  HFX_INFO| NBINS:                                                            64
  HFX_INFO| BLOCK_SIZE:                                                        1
  HFX_INFO| Number of periodic shells considered:                           NONE
  HFX_INFO| Number of periodic cells considered:                            NONE

 
 RI-RPA| using GPW style
 

 OVERLAP MATRIX CONDITION NUMBER
 1-Norm Condition Number (Estimate)
   CN : |A|*|A^-1|:  5.324E+000 *  8.956E+002   = 4.769E+003  Log(1-CN):  3.6784
 1-Norm and 2-Norm Condition Numbers using Diagonalization
   CN : |A|*|A^-1|:  5.324E+000 *  8.956E+002   = 4.769E+003  Log(1-CN):  3.6784
   CN : max/min ev:  3.467E+000 /  1.709E-003   = 2.029E+003  Log(2-CN):  3.3072

 Number of electrons:                                                         12
 Number of occupied orbitals:                                                  6
 Number of molecular orbitals:                                                60

 Number of orbital functions:                                                 60
 Number of independent orbital functions:                                     60

 Extrapolation method: initial_guess

 Atomic guess: The first density matrix is obtained in terms of atomic orbitals
               and electronic configurations assigned to each atomic kind

 Guess for atomic kind: C

 Electronic structure
    Total number of core electrons                                          0.00
    Total number of valence electrons                                       6.00
    Total number of electrons                                               6.00
    Multiplicity                                                   not specified
    S      2.00  2.00
    P      2.00


 *******************************************************************************
                  Iteration          Convergence                     Energy [au]
 *******************************************************************************
                          1        0.133902                     -37.363061759844
                          2        0.102325                     -37.368472442706
                          3        0.860737E-03                 -37.376215693871
                          4        0.849047E-04                 -37.376216293501
                          5        0.219397E-06                 -37.376216298714

 Energy components [Hartree]           Total Energy ::          -37.376216298714
                                        Band Energy ::          -21.245708131868
                                     Kinetic Energy ::           37.464666877769
                                   Potential Energy ::          -74.840883176484
                                      Virial (-V/T) ::            1.997639093406
                                        Core Energy ::          -50.271057779086
                                          XC Energy ::           -4.736056292831
                                     Coulomb Energy ::           17.630897773203

 Orbital energies  State     L     Occupation   Energy[a.u.]          Energy[eV]

                       1     0          2.000      -9.941022         -270.508975
                       2     0          2.000      -0.490185          -13.338601

                       1     1          2.000      -0.191647           -5.214984


 Total Electron Density at R=0:                                       116.283880
 Re-scaling the density matrix to get the right number of electrons
                  # Electrons              Trace(P)               Scaling factor
                           12                12.000                        1.000


 SCF WAVEFUNCTION OPTIMIZATION

  Step     Update method      Time    Convergence         Total energy    Change
  ------------------------------------------------------------------------------

  HFX_MEM_INFO| Est. max. program size before HFX [MiB]:                    2161
  HFX_MEM_INFO| Number of cart. primitive ERI's calculated:            674513758
  HFX_MEM_INFO| Number of sph. ERI's calculated:                         4860000
  HFX_MEM_INFO| Number of sph. ERI's stored in-core:                     4860000
  HFX_MEM_INFO| Number of sph. ERI's stored on disk:                           0
  HFX_MEM_INFO| Number of sph. ERI's calculated on the fly:                    0
  HFX_MEM_INFO| Total memory consumption ERI's RAM [MiB]:                     20
  HFX_MEM_INFO| Whereof max-vals [MiB]:                                        1
  HFX_MEM_INFO| Total compression factor ERI's RAM:                         1.87
  HFX_MEM_INFO| Total memory consumption ERI's disk [MiB]:                     0
  HFX_MEM_INFO| Total compression factor ERI's disk:                        0.00
  HFX_MEM_INFO| Size of density/Fock matrix [MiB]:                             0
  HFX_MEM_INFO| Size of buffers [MiB]:                                        13
  HFX_MEM_INFO| Est. max. program size after HFX  [MiB]:                    2695

     1 NoMix/Diag. 0.10E+00   18.6     1.31515393       -75.9310665379 -7.59E+01
     2 Broy./Diag. 0.10E+00    4.8     0.03786267       -75.1120750673  8.19E-01
     3 Broy./Diag. 0.10E+00    4.9     0.03612222       -74.7722713269  3.40E-01
     4 Broy./Diag. 0.10E+00    4.9     0.11297437       -75.1044644284 -3.32E-01
     5 Broy./Diag. 0.10E+00    4.9     0.03035415       -75.5941547410 -4.90E-01
     6 Broy./Diag. 0.10E+00    5.0     0.00543255       -75.6729189492 -7.88E-02
     7 Broy./Diag. 0.10E+00    5.0     0.00530417       -75.6657737796  7.15E-03
     8 Broy./Diag. 0.10E+00    5.1     0.00091954       -75.6769877144 -1.12E-02
     9 Broy./Diag. 0.10E+00    5.3     0.00183013       -75.6710913973  5.90E-03
    10 Broy./Diag. 0.10E+00    5.4     0.00300336       -75.6795459025 -8.45E-03
    11 Broy./Diag. 0.10E+00    5.3     0.00295092       -75.6968052718 -1.73E-02
    12 Broy./Diag. 0.10E+00    5.4     0.00332821       -75.7153868303 -1.86E-02
    13 Broy./Diag. 0.10E+00    5.3     0.00072513       -75.7284432109 -1.31E-02
    14 Broy./Diag. 0.10E+00    5.3     0.00205284       -75.7188822037  9.56E-03
    15 Broy./Diag. 0.10E+00    5.3     0.00034867       -75.7128604857  6.02E-03
    16 Broy./Diag. 0.10E+00    5.3     0.00027211       -75.7151758074 -2.32E-03
    17 Broy./Diag. 0.10E+00    5.5     0.00070564       -75.7169562185 -1.78E-03
    18 Broy./Diag. 0.10E+00    5.4     0.00105219       -75.7214948996 -4.54E-03
    19 Broy./Diag. 0.10E+00    5.4     0.00013553       -75.7250245881 -3.53E-03
    20 Broy./Diag. 0.10E+00    5.4     0.00020360       -75.7246290513  3.96E-04
    21 Broy./Diag. 0.10E+00    5.3     0.00009516       -75.7239210238  7.08E-04
    22 Broy./Diag. 0.10E+00    5.3     0.00044873       -75.7215842219  2.34E-03
    23 Broy./Diag. 0.10E+00    5.3     0.00014110       -75.7204773987  1.11E-03
    24 Broy./Diag. 0.10E+00    5.3     0.00023403       -75.7217864510 -1.31E-03
    25 Broy./Diag. 0.10E+00    5.4     0.00005883       -75.7224017083 -6.15E-04
    26 Broy./Diag. 0.10E+00    5.4     0.00005303       -75.7221282352  2.73E-04
    27 Broy./Diag. 0.10E+00    5.3     0.00008431       -75.7224064735 -2.78E-04
    28 Broy./Diag. 0.10E+00    5.4     0.00003197       -75.7227349642 -3.28E-04
    29 Broy./Diag. 0.10E+00    5.3     0.00006767       -75.7229907591 -2.56E-04
    30 Broy./Diag. 0.10E+00    5.3     0.00008336       -75.7230493105 -5.86E-05
    31 Broy./Diag. 0.10E+00    5.3     0.00014982       -75.7226397043  4.10E-04
    32 Broy./Diag. 0.10E+00    5.3     0.00006529       -75.7224393692  2.00E-04
    33 Broy./Diag. 0.10E+00    5.4     0.00005158       -75.7225991896 -1.60E-04
    34 Broy./Diag. 0.10E+00    5.4     0.00003622       -75.7225949125  4.28E-06
    35 Broy./Diag. 0.10E+00    5.3     0.00006477       -75.7224729389  1.22E-04
    36 Broy./Diag. 0.10E+00    5.4     0.00005220       -75.7223900581  8.29E-05
    37 Broy./Diag. 0.10E+00    5.4     0.00003994       -75.7223848300  5.23E-06
    38 Broy./Diag. 0.10E+00    5.3     0.00002992       -75.7223827618  2.07E-06
    39 Broy./Diag. 0.10E+00    5.4     0.00003939       -75.7224276413 -4.49E-05
    40 Broy./Diag. 0.10E+00    5.3     0.00003543       -75.7224573701 -2.97E-05
    41 Broy./Diag. 0.10E+00    5.4     0.00004680       -75.7224652033 -7.83E-06
    42 Broy./Diag. 0.10E+00    5.5     0.00003227       -75.7224360979  2.91E-05
    43 Broy./Diag. 0.10E+00    5.3     0.00002857       -75.7223971473  3.90E-05
    44 Broy./Diag. 0.10E+00    5.3     0.00003233       -75.7223684056  2.87E-05
    45 Broy./Diag. 0.10E+00    5.3     0.00003696       -75.7224107840 -4.24E-05
    46 Broy./Diag. 0.10E+00    5.3     0.00003122       -75.7224747754 -6.40E-05
    47 Broy./Diag. 0.10E+00    5.3     0.00003046       -75.7224325849  4.22E-05
    48 Broy./Diag. 0.10E+00    5.3     0.00002694       -75.7224048345  2.78E-05
    49 Broy./Diag. 0.10E+00    5.4     0.00004374       -75.7225232258 -1.18E-04
    50 Broy./Diag. 0.10E+00    5.4     0.00004791       -75.7225805097 -5.73E-05
    51 Broy./Diag. 0.10E+00    5.3     0.00005520       -75.7225443730  3.61E-05
    52 Broy./Diag. 0.10E+00    5.3     0.00005432       -75.7225177093  2.67E-05
    53 Broy./Diag. 0.10E+00    5.3     0.00005183       -75.7225147955  2.91E-06
    54 Broy./Diag. 0.10E+00    5.3     0.00005744       -75.7225048275  9.97E-06
    55 Broy./Diag. 0.10E+00    5.4     0.00005670       -75.7224989828  5.84E-06
    56 Broy./Diag. 0.10E+00    5.4     0.00004720       -75.7224992708 -2.88E-07
    57 Broy./Diag. 0.10E+00    5.4     0.00005224       -75.7225028785 -3.61E-06
    58 Broy./Diag. 0.10E+00    5.4     0.00005196       -75.7225197048 -1.68E-05
    59 Broy./Diag. 0.10E+00    5.4     0.00004859       -75.7225285307 -8.83E-06
    60 Broy./Diag. 0.10E+00    5.3     0.00004960       -75.7225248228  3.71E-06
    61 Broy./Diag. 0.10E+00    5.3     0.00004644       -75.7225290640 -4.24E-06
    62 Broy./Diag. 0.10E+00    5.3     0.00004258       -75.7225325514 -3.49E-06
    63 Broy./Diag. 0.10E+00    5.3     0.00004219       -75.7225329005 -3.49E-07
    64 Broy./Diag. 0.10E+00    5.3     0.00003818       -75.7225393078 -6.41E-06
    65 Broy./Diag. 0.10E+00    5.4     0.00002827       -75.7225334178  5.89E-06
    66 Broy./Diag. 0.10E+00    5.5     0.00002678       -75.7225174478  1.60E-05
    67 Broy./Diag. 0.10E+00    5.4     0.00003149       -75.7225259305 -8.48E-06
    68 Broy./Diag. 0.10E+00    5.4     0.00002608       -75.7225469595 -2.10E-05
    69 Broy./Diag. 0.10E+00    5.3     0.00003602       -75.7225393617  7.60E-06
    70 Broy./Diag. 0.10E+00    5.4     0.00003129       -75.7225504935 -1.11E-05
    71 Broy./Diag. 0.10E+00    5.3     0.00002808       -75.7225542098 -3.72E-06
    72 Broy./Diag. 0.10E+00    5.3     0.00002156       -75.7225596903 -5.48E-06
    73 Broy./Diag. 0.10E+00    5.4     0.00001832       -75.7225593839  3.06E-07
    74 Broy./Diag. 0.10E+00    5.4     0.00002911       -75.7225356915  2.37E-05
    75 Broy./Diag. 0.10E+00    5.3     0.00003096       -75.7224780260  5.77E-05
    76 Broy./Diag. 0.10E+00    5.3     0.00001228       -75.7225204686 -4.24E-05
    77 Broy./Diag. 0.10E+00    5.4     0.00004006       -75.7225394399 -1.90E-05
    78 Broy./Diag. 0.10E+00    5.3     0.00004494       -75.7224543221  8.51E-05
    79 Broy./Diag. 0.10E+00    5.3     0.00011163       -75.7226073072 -1.53E-04
    80 Broy./Diag. 0.10E+00    5.3     0.00028030       -75.7227224533 -1.15E-04
    81 Broy./Diag. 0.10E+00    5.4     0.00036246       -75.7224587279  2.64E-04
    82 Broy./Diag. 0.10E+00    5.4     0.00024707       -75.7222096149  2.49E-04
    83 Broy./Diag. 0.10E+00    5.3     0.00013991       -75.7221074812  1.02E-04
    84 Broy./Diag. 0.10E+00    5.4     0.00005627       -75.7221256529 -1.82E-05
    85 Broy./Diag. 0.10E+00    5.3     0.00009627       -75.7222463484 -1.21E-04
    86 Broy./Diag. 0.10E+00    5.4     0.00008489       -75.7221844658  6.19E-05
    87 Broy./Diag. 0.10E+00    5.3     0.00010506       -75.7221438348  4.06E-05
    88 Broy./Diag. 0.10E+00    5.3     0.00013038       -75.7224647206 -3.21E-04
    89 Broy./Diag. 0.10E+00    5.4     0.00016574       -75.7224899232 -2.52E-05
    90 Broy./Diag. 0.10E+00    5.4     0.00020709       -75.7224761746  1.37E-05
    91 Broy./Diag. 0.10E+00    5.3     0.00026042       -75.7225163631 -4.02E-05
    92 Broy./Diag. 0.10E+00    5.3     0.00032798       -75.7225747402 -5.84E-05
    93 Broy./Diag. 0.10E+00    5.4     0.00041145       -75.7225968199 -2.21E-05
    94 Broy./Diag. 0.10E+00    5.3     0.00051685       -75.7225664405  3.04E-05
    95 Broy./Diag. 0.10E+00    5.3     0.00064849       -75.7225750511 -8.61E-06
    96 Broy./Diag. 0.10E+00    5.3     0.00081388       -75.7225712458  3.81E-06
    97 Broy./Diag. 0.10E+00    5.4     0.00102172       -75.7224972982  7.39E-05
    98 Broy./Diag. 0.10E+00    5.4     0.00128891       -75.7223312046  1.66E-04
    99 Broy./Diag. 0.10E+00    5.3     0.00162117       -75.7222998854  3.13E-05
   100 Broy./Diag. 0.10E+00    5.3     0.00203908       -75.7222557736  4.41E-05
   101 Broy./Diag. 0.10E+00    5.3     0.00256640       -75.7223428397 -8.71E-05
   102 Broy./Diag. 0.10E+00    5.3     0.00322124       -75.7223563636 -1.35E-05
   103 Broy./Diag. 0.10E+00    5.3     0.00404535       -75.7221795912  1.77E-04
   104 Broy./Diag. 0.10E+00    5.4     0.00507613       -75.7219105155  2.69E-04
   105 Broy./Diag. 0.10E+00    5.4     0.00635592       -75.7214806057  4.30E-04
   106 Broy./Diag. 0.10E+00    5.4     0.00793463       -75.7206728127  8.08E-04
   107 Broy./Diag. 0.10E+00    5.3     0.00988662       -75.7191534346  1.52E-03
   108 Broy./Diag. 0.10E+00    5.3     0.01224905       -75.7172775972  1.88E-03
   109 Broy./Diag. 0.10E+00    5.4     0.01504657       -75.7144672581  2.81E-03
   110 Broy./Diag. 0.10E+00    5.3     0.01825211       -75.7104942543  3.97E-03
   111 Broy./Diag. 0.10E+00    5.3     0.02163719       -75.7042581841  6.24E-03
   112 Broy./Diag. 0.10E+00    5.3     0.02484043       -75.6943608982  9.90E-03
   113 Broy./Diag. 0.10E+00    5.4     0.03175236       -75.6795751623  1.48E-02
   114 Broy./Diag. 0.10E+00    5.4     0.04358483       -75.6582078329  2.14E-02
   115 Broy./Diag. 0.10E+00    5.4     0.05637735       -75.6283691105  2.98E-02
   116 Broy./Diag. 0.10E+00    5.4     0.06735490       -75.5888186783  3.96E-02
   117 Broy./Diag. 0.10E+00    5.3     0.07370747       -75.5420311034  4.68E-02
   118 Broy./Diag. 0.10E+00    5.4     0.07366098       -75.4908557924  5.12E-02
   119 Broy./Diag. 0.10E+00    5.3     0.06764663       -75.4405894559  5.03E-02
   120 Broy./Diag. 0.10E+00    5.3     0.05741472       -75.3952649201  4.53E-02
   121 Broy./Diag. 0.10E+00    5.4     0.04582277       -75.3576306983  3.76E-02
   122 Broy./Diag. 0.10E+00    5.4     0.03541894       -75.3298687244  2.78E-02
   123 Broy./Diag. 0.10E+00    5.3     0.02635431       -75.3140746617  1.58E-02
   124 Broy./Diag. 0.10E+00    5.3     0.02216774       -75.3106258498  3.45E-03
   125 Broy./Diag. 0.10E+00    5.3     0.01985529       -75.3110023464 -3.76E-04
   126 Broy./Diag. 0.10E+00    5.3     0.01765541       -75.3261503096 -1.51E-02
   127 Broy./Diag. 0.10E+00    5.3     0.01431513       -75.3208394674  5.31E-03
   128 Broy./Diag. 0.10E+00    5.3     0.01207030       -75.3759537530 -5.51E-02
   129 Broy./Diag. 0.10E+00    5.4     0.00806240       -75.2574484341  1.19E-01
   130 Broy./Diag. 0.10E+00    5.4     0.00811095       -75.2200718578  3.74E-02
   131 Broy./Diag. 0.10E+00    5.3     0.01920572       -75.2784725005 -5.84E-02
   132 Broy./Diag. 0.10E+00    5.3     0.02685027       -75.3945098375 -1.16E-01
   133 Broy./Diag. 0.10E+00    5.3     0.03621251       -75.4131433770 -1.86E-02
   134 Broy./Diag. 0.10E+00    5.3     0.08413277       -75.1857138276  2.27E-01
   135 Broy./Diag. 0.10E+00    5.3     0.12670561       -75.1131693699  7.25E-02
   136 Broy./Diag. 0.10E+00    5.4     0.09898441       -75.2592413803 -1.46E-01
   137 Broy./Diag. 0.10E+00    5.4     0.08606600       -75.5103693167 -2.51E-01
   138 Broy./Diag. 0.10E+00    5.4     0.06024779       -75.7314147844 -2.21E-01
   139 Broy./Diag. 0.10E+00    5.4     0.04904735       -75.8156264985 -8.42E-02
   140 Broy./Diag. 0.10E+00    5.3     0.04166931       -75.8121040342  3.52E-03

 *** WARNING in pw/ps_wavelet_methods.F:238 :: Density non-zero on the ***
 *** edges of the unit cell: wrong results in WAVELET solver           ***

   141 Broy./Diag. 0.10E+00    5.5     0.07505101       -75.8873945722 -7.53E-02

 *** WARNING in pw/ps_wavelet_methods.F:238 :: Density non-zero on the ***
[...]
   422 Broy./Diag. 0.10E+00    5.3     0.04347379       -75.5761776738 -1.03E-01
   423 Broy./Diag. 0.10E+00    5.3     0.06553124       -75.6787144344 -1.03E-01
   424 Broy./Diag. 0.10E+00    5.3     0.06103649       -75.7262838127 -4.76E-02
   425 Broy./Diag. 0.10E+00    5.4     0.11065128       -75.7723746003 -4.61E-02
   426 Broy./Diag. 0.10E+00    5.4     0.15469182       -75.8615666100 -8.92E-02
   427 Broy./Diag. 0.10E+00    5.3     0.12670416       -75.9979869196 -1.36E-01
   428 Broy./Diag. 0.10E+00    5.3     0.07072742       -75.9760662803  2.19E-02
   429 Broy./Diag. 0.10E+00    5.3     0.04960004       -75.8610531754  1.15E-01
   430 Broy./Diag. 0.10E+00    5.4     0.04366934       -75.8527497364  8.30E-03
   431 Broy./Diag. 0.10E+00    5.3     0.03046865       -75.8742625080 -2.15E-02
   432 Broy./Diag. 0.10E+00    5.3     0.01784583       -75.8743038275 -4.13E-05
   433 Broy./Diag. 0.10E+00    5.4     0.03689058       -75.9259177727 -5.16E-02
   434 Broy./Diag. 0.10E+00    5.4     0.01667965       -75.9536920008 -2.78E-02
   435 Broy./Diag. 0.10E+00    5.3     0.03744785       -75.8458102094  1.08E-01
   436 Broy./Diag. 0.10E+00    5.3     0.05491905       -75.7801512455  6.57E-02
   437 Broy./Diag. 0.10E+00    5.3     0.09110183       -75.7368853215  4.33E-02
   438 Broy./Diag. 0.10E+00    5.3     0.08932585       -75.6698743870  6.70E-02
   439 Broy./Diag. 0.10E+00    5.4     0.05985264       -75.6166463926  5.32E-02
   440 Broy./Diag. 0.10E+00    5.3     0.03740836       -75.6067625606  9.88E-03
   441 Broy./Diag. 0.10E+00    5.4     0.09639642       -75.4774220817  1.29E-01
   442 Broy./Diag. 0.10E+00    5.4     0.10510770       -75.4177739520  5.96E-02
   443 Broy./Diag. 0.10E+00    5.4     0.06332563       -75.4636242056 -4.59E-02
   444 Broy./Diag. 0.10E+00    5.4     0.02695002       -75.4923166952 -2.87E-02
   445 Broy./Diag. 0.10E+00    5.3     0.04463591       -75.4616916269  3.06E-02
   446 Broy./Diag. 0.10E+00    5.4     0.03634094       -75.5328232994 -7.11E-02
   447 Broy./Diag. 0.10E+00    5.3     0.04569034       -75.6022235489 -6.94E-02
   448 Broy./Diag. 0.10E+00    5.3     0.11739755       -75.7212120046 -1.19E-01
   449 Broy./Diag. 0.10E+00    5.4     0.06207191       -75.7445067887 -2.33E-02
   450 Broy./Diag. 0.10E+00    5.4     0.05006024       -75.7010970675  4.34E-02
   451 Broy./Diag. 0.10E+00    5.3     0.06084234       -75.6770415052  2.41E-02

 *** WARNING in pw/ps_wavelet_methods.F:238 :: Density non-zero on the ***
 *** edges of the unit cell: wrong results in WAVELET solver           ***

   452 Broy./Diag. 0.10E+00    5.3     0.07074397       -75.7307379934 -5.37E-02

 *** WARNING in pw/ps_wavelet_methods.F:238 :: Density non-zero on the ***
 *** edges of the unit cell: wrong results in WAVELET solver           ***

   453 Broy./Diag. 0.10E+00    5.3     0.05389389       -75.8248807614 -9.41E-02
   454 Broy./Diag. 0.10E+00    5.3     0.09058474       -75.8792464288 -5.44E-02
   455 Broy./Diag. 0.10E+00    5.4     0.03953742       -75.9754445332 -9.62E-02
   456 Broy./Diag. 0.10E+00    5.4     0.12026386       -76.0273767995 -5.19E-02
   457 Broy./Diag. 0.10E+00    5.4     0.05536000       -75.8897120172  1.38E-01
   458 Broy./Diag. 0.10E+00    5.4     0.15568826       -75.6477761923  2.42E-01
   459 Broy./Diag. 0.10E+00    5.3     0.06080644       -75.6105140817  3.73E-02
   460 Broy./Diag. 0.10E+00    5.4     0.03106605       -75.6835410807 -7.30E-02
   461 Broy./Diag. 0.10E+00    5.3     0.03080129       -75.6802826986  3.26E-03
   462 Broy./Diag. 0.10E+00    5.3     0.04318766       -75.6438730122  3.64E-02
   463 Broy./Diag. 0.10E+00    5.3     0.05939116       -75.6721691623 -2.83E-02
   464 Broy./Diag. 0.10E+00    5.3     0.02695466       -75.6878954246 -1.57E-02
   465 Broy./Diag. 0.10E+00    5.5     0.02147487       -75.6392132758  4.87E-02
   466 Broy./Diag. 0.10E+00    5.4     0.02285908       -75.6310244112  8.19E-03
   467 Broy./Diag. 0.10E+00    5.3     0.01977167       -75.6152130820  1.58E-02
   468 Broy./Diag. 0.10E+00    5.4     0.02566022       -75.6091632892  6.05E-03
   469 Broy./Diag. 0.10E+00    5.3     0.03661929       -75.6560069842 -4.68E-02
   470 Broy./Diag. 0.10E+00    5.3     0.01582135       -75.7148370594 -5.88E-02
   471 Broy./Diag. 0.10E+00    5.3     0.01793815       -75.7444802671 -2.96E-02
   472 Broy./Diag. 0.10E+00    5.4     0.02243943       -75.7491305107 -4.65E-03
   473 Broy./Diag. 0.10E+00    5.4     0.02627595       -75.7434319893  5.70E-03
   474 Broy./Diag. 0.10E+00    5.4     0.02684290       -75.7614864362 -1.81E-02
   475 Broy./Diag. 0.10E+00    5.4     0.02602415       -75.7542277155  7.26E-03
   476 Broy./Diag. 0.10E+00    5.3     0.02824084       -75.7484572361  5.77E-03
   477 Broy./Diag. 0.10E+00    5.3     0.03377262       -75.7312232119  1.72E-02
   478 Broy./Diag. 0.10E+00    5.3     0.04017605       -75.7039152544  2.73E-02
   479 Broy./Diag. 0.10E+00    5.3     0.04321879       -75.6777463420  2.62E-02
   480 Broy./Diag. 0.10E+00    5.4     0.05583687       -75.6613804426  1.64E-02
   481 Broy./Diag. 0.10E+00    5.4     0.05569535       -75.6414295944  2.00E-02
   482 Broy./Diag. 0.10E+00    5.4     0.08092934       -75.6238922589  1.75E-02
   483 Broy./Diag. 0.10E+00    5.4     0.09699969       -75.6330652632 -9.17E-03
   484 Broy./Diag. 0.10E+00    5.3     0.08890526       -75.5727234523  6.03E-02
   485 Broy./Diag. 0.10E+00    5.4     0.06318701       -75.4787685157  9.40E-02
   486 Broy./Diag. 0.10E+00    5.3     0.05133599       -75.4239678133  5.48E-02
   487 Broy./Diag. 0.10E+00    5.3     0.06694232       -75.3962523931  2.77E-02
   488 Broy./Diag. 0.10E+00    5.4     0.05330114       -75.3636539242  3.26E-02
   489 Broy./Diag. 0.10E+00    5.4     0.04566271       -75.3739694443 -1.03E-02
   490 Broy./Diag. 0.10E+00    5.3     0.04646937       -75.4253373261 -5.14E-02
   491 Broy./Diag. 0.10E+00    5.3     0.05497116       -75.3793244151  4.60E-02
   492 Broy./Diag. 0.10E+00    5.3     0.05585221       -75.5669168709 -1.88E-01
   493 Broy./Diag. 0.10E+00    5.4     0.03157115       -75.6584232057 -9.15E-02
   494 Broy./Diag. 0.10E+00    5.3     0.09155061       -75.7999725264 -1.42E-01
   495 Broy./Diag. 0.10E+00    5.3     0.06874047       -75.7136623357  8.63E-02
   496 Broy./Diag. 0.10E+00    5.3     0.10512345       -75.5162809617  1.97E-01
   497 Broy./Diag. 0.10E+00    5.4     0.08133626       -75.2061565120  3.10E-01
   498 Broy./Diag. 0.10E+00    5.3     0.10783854       -75.2969473639 -9.08E-02
   499 Broy./Diag. 0.10E+00    5.3     0.15029458       -75.6477048754 -3.51E-01
   500 Broy./Diag. 0.10E+00    5.3     0.10851471       -75.8672595929 -2.20E-01

  Leaving inner SCF loop after reaching   500 steps.


  Electronic density on regular grids:         -8.6228280713        3.3771719287
  Core density on regular grids:               12.0000000000        0.0000000000
  Hard and soft densities (Lebedev):          -45.3363578311      -41.9560718546
  Total Rho_soft + Rho1_hard - Rho1_soft      -12.0031140478
  Total charge density (r-space):              -0.0031140478
  Total Rho_soft + Rho0_soft (g-space):        -0.0031141898

  Overlap energy of the core charge distribution:               0.00003125550742
  Self energy of the core charge distribution:                -58.22549323810243
  Core Hamiltonian energy:                                    -15.07214543135307
  Hartree energy:                                              16.50981551502502
  Exchange-correlation energy:                                 -2.90031903197664
  Hartree-Fock Exchange energy:                                -2.53417966201886

  GAPW| Exc from hard and soft atomic rho1:                    -5.14995169288862
  GAPW| local Eh = 1 center integrals:                         -8.49501730709440

  Total energy:                                               -75.86725959290159

 *******************************************************************************
 *   ___                                                                       *
 *  /   \                                                                      *
 * [ABORT]                                                                     *
 *  \___/     SCF run NOT converged. To continue the calculation regardless,   *
 *    |             please set the keyword IGNORE_CONVERGENCE_FAILURE.         *
 *  O/|                                                                        *
 * /| |                                                                        *
 * / \                                                            qs_scf.F:611 *
 *******************************************************************************


 ===== Routine Calling Stack ===== 

            3 scf_env_do_scf
            2 qs_energies
            1 CP2K

 *******************************************************************************
 *   ___                                                                       *
 *  /   \                                                                      *
 * [ABORT]                                                                     *
 *  \___/     SCF run NOT converged. To continue the calculation regardless,   *
 *    |             please set the keyword IGNORE_CONVERGENCE_FAILURE.         *
 *  O/|                                                                        *
 * /| |                                                                        *
 * / \                                                            qs_scf.F:611 *
 *******************************************************************************


 ===== Routine Calling Stack ===== 

            3 scf_env_do_scf
            2 qs_energies
            1 CP2K

 *******************************************************************************
 *   ___                                                                       *
 *  /   \                                                                      *
 * [ABORT]                                                                     *
 *  \___/     SCF run NOT converged. To continue the calculation regardless,   *
 *    |             please set the keyword IGNORE_CONVERGENCE_FAILURE.         *
 *  O/|                                                                        *
 * /| |                                                                        *
 * / \                                                            qs_scf.F:611 *
 *******************************************************************************


 ===== Routine Calling Stack ===== 

            3 scf_env_do_scf
            2 qs_energies
            1 CP2K

 *******************************************************************************
 *   ___                                                                       *
 *  /   \                                                                      *
 * [ABORT]                                                                     *
 *  \___/     SCF run NOT converged. To continue the calculation regardless,   *
 *    |             please set the keyword IGNORE_CONVERGENCE_FAILURE.         *
 *  O/|                                                                        *
 * /| |                                                                        *
 * / \                                                            qs_scf.F:611 *
 *******************************************************************************


 ===== Routine Calling Stack ===== 

            3 scf_env_do_scf
            2 qs_energies
            1 CP2K

 *******************************************************************************
 *   ___                                                                       *
 *  /   \                                                                      *
 * [ABORT]                                                                     *
 *  \___/     SCF run NOT converged. To continue the calculation regardless,   *
 *    |             please set the keyword IGNORE_CONVERGENCE_FAILURE.         *
 *  O/|                                                                        *
 * /| |                                                                        *
 * / \                                                            qs_scf.F:611 *
 *******************************************************************************


 ===== Routine Calling Stack ===== 

            3 scf_env_do_scf
            2 qs_energies
            1 CP2K

 *******************************************************************************
 *   ___                                                                       *
 *  /   \                                                                      *
 * [ABORT]                                                                     *
 *  \___/     SCF run NOT converged. To continue the calculation regardless,   *
 *    |             please set the keyword IGNORE_CONVERGENCE_FAILURE.         *
 *  O/|                                                                        *
 * /| |                                                                        *
 * / \                                                            qs_scf.F:611 *
 *******************************************************************************


 ===== Routine Calling Stack ===== 

            3 scf_env_do_scf
            2 qs_energies
            1 CP2K

 *******************************************************************************
 *   ___                                                                       *
 *  /   \                                                                      *
 * [ABORT]                                                                     *
 *  \___/     SCF run NOT converged. To continue the calculation regardless,   *
 *    |             please set the keyword IGNORE_CONVERGENCE_FAILURE.         *
 *  O/|                                                                        *
 * /| |                                                                        *
 * / \                                                            qs_scf.F:611 *
 *******************************************************************************


 ===== Routine Calling Stack ===== 

            3 scf_env_do_scf
            2 qs_energies
            1 CP2K

 *******************************************************************************
 *   ___                                                                       *
 *  /   \                                                                      *
 * [ABORT]                                                                     *
 *  \___/     SCF run NOT converged. To continue the calculation regardless,   *
 *    |             please set the keyword IGNORE_CONVERGENCE_FAILURE.         *
 *  O/|                                                                        *
 * /| |                                                                        *
 * / \                                                            qs_scf.F:611 *
 *******************************************************************************


 ===== Routine Calling Stack ===== 

            3 scf_env_do_scf
            2 qs_energies
            1 CP2K

 *******************************************************************************
 *   ___                                                                       *
 *  /   \                                                                      *
 * [ABORT]                                                                     *
 *  \___/     SCF run NOT converged. To continue the calculation regardless,   *
 *    |             please set the keyword IGNORE_CONVERGENCE_FAILURE.         *
 *  O/|                                                                        *
 * /| |                                                                        *
 * / \                                                            qs_scf.F:611 *
 *******************************************************************************


 ===== Routine Calling Stack ===== 

            3 scf_env_do_scf
            2 qs_energies
            1 CP2K

 *******************************************************************************
 *   ___                                                                       *
 *  /   \                                                                      *
 * [ABORT]                                                                     *
 *  \___/     SCF run NOT converged. To continue the calculation regardless,   *
 *    |             please set the keyword IGNORE_CONVERGENCE_FAILURE.         *
 *  O/|                                                                        *
 * /| |                                                                        *
 * / \                                                            qs_scf.F:611 *
 *******************************************************************************


 ===== Routine Calling Stack ===== 

            3 scf_env_do_scf
            2 qs_energies
            1 CP2K

 *******************************************************************************
 *   ___                                                                       *
 *  /   \                                                                      *
 * [ABORT]                                                                     *
 *  \___/     SCF run NOT converged. To continue the calculation regardless,   *
 *    |             please set the keyword IGNORE_CONVERGENCE_FAILURE.         *
 *  O/|                                                                        *
 * /| |                                                                        *
 * / \                                                            qs_scf.F:611 *
 *******************************************************************************


 ===== Routine Calling Stack ===== 

            3 scf_env_do_scf
            2 qs_energies
            1 CP2K

 *******************************************************************************
 *   ___                                                                       *
 *  /   \                                                                      *
 * [ABORT]                                                                     *
 *  \___/     SCF run NOT converged. To continue the calculation regardless,   *
 *    |             please set the keyword IGNORE_CONVERGENCE_FAILURE.         *
 *  O/|                                                                        *
 * /| |                                                                        *
 * / \                                                            qs_scf.F:611 *
 *******************************************************************************


 ===== Routine Calling Stack ===== 

            3 scf_env_do_scf
            2 qs_energies
            1 CP2K

 *******************************************************************************
 *   ___                                                                       *
 *  /   \                                                                      *
 * [ABORT]                                                                     *
 *  \___/     SCF run NOT converged. To continue the calculation regardless,   *
 *    |             please set the keyword IGNORE_CONVERGENCE_FAILURE.         *
 *  O/|                                                                        *
 * /| |                                                                        *
 * / \                                                            qs_scf.F:611 *
 *******************************************************************************


 ===== Routine Calling Stack ===== 

            3 scf_env_do_scf
            2 qs_energies
            1 CP2K
