 DBCSR| CPU Multiplication driver                                           BLAS (U)
 DBCSR| Multrec recursion limit                                              512 (U)
 DBCSR| Multiplication stack size                                           1000 (D)
 DBCSR| Maximum elements for images                                    UNLIMITED (U)
 DBCSR| Multiplicative factor virtual images                                   1 (U)
 DBCSR| Use multiplication densification                                       T (D)
 DBCSR| Multiplication size stacks                                             3 (U)
 DBCSR| Use memory pool for CPU allocation                                     F (U)
 DBCSR| Number of 3D layers                                               SINGLE (U)
 DBCSR| Use MPI memory allocation                                              F (U)
 DBCSR| Use RMA algorithm                                                      F (U)
 DBCSR| Use Communication thread                                               T (U)
 DBCSR| Communication thread load                                             75 (D)
 DBCSR| MPI: My process id                                                     0
 DBCSR| MPI: Number of processes                                              24
 DBCSR| OMP: Current number of threads                                         4
 DBCSR| OMP: Max number of threads                                             4
 DBCSR| Split modifier for TAS multiplication algorithm                  1.0E+00 (U)


  **** **** ******  **  PROGRAM STARTED AT               2025-03-16 14:54:41.815
 ***** ** ***  *** **   PROGRAM STARTED ON                          i04r02c05s07
 **    ****   ******    PROGRAM STARTED BY                               di38fab
 ***** **    ** ** **   PROGRAM PROCESS ID                               3704938
  **** **  *******  **  PROGRAM STARTED IN /hppfs/scratch/04/di38fab/05_MOL/W4-1
                                           1+ALK/o2/DZVP/GW+BSE/1e-3

 CP2K| version string:                 CP2K version 2025.1 (Development Version)
 CP2K| source code revision number:                                  git:d2e611a
 CP2K| cp2kflags: omp libint fftw3 libxc parallel scalapack max_contr=4         
 CP2K| is freely available from                            https://www.cp2k.org/
 CP2K| Program compiled at                       Thu 06 Mar 2025 05:09:20 PM CET
 CP2K| Program compiled on                                               login02
 CP2K| Program compiled for                                        Supermuc-foss
 CP2K| Data directory path                  /hppfs/work/pn36zo/di38fab/cp2k/data
 CP2K| Input file name                                                    GW.inp

 GLOBAL| Force Environment number                                              1
 GLOBAL| Basis set file name            /hppfs/scratch/04/di38fab/04_TMD/BASIS_A
 GLOBAL| Potential file name            /hppfs/work/pn36zo/di38fab/cp2k/data/ALL
 GLOBAL| MM Potential file name                                     MM_POTENTIAL
 GLOBAL| Coordinate file name                                      __STD_INPUT__
 GLOBAL| Method name                                                        CP2K
 GLOBAL| Project name                                                       MoS2
 GLOBAL| Run type                                                         ENERGY
 GLOBAL| FFT library                                                       FFTW3
 GLOBAL| Diagonalization library                                       ScaLAPACK
 GLOBAL| DGEMM library                                                      BLAS
 GLOBAL| Orthonormality check for eigenvectors                          DISABLED
 GLOBAL| Matrix multiplication library                                 ScaLAPACK
 GLOBAL| All-to-all communication in single precision                          F
 GLOBAL| FFTs using library dependent lengths                                  F
 GLOBAL| Grid backend                                                       AUTO
 GLOBAL| Global print level                                               MEDIUM
 GLOBAL| MPI I/O enabled                                                       T
 GLOBAL| Total number of message passing processes                            24
 GLOBAL| Number of threads for this process                                    4
 GLOBAL| This output is from process                                           0
 GLOBAL| OpenMP stack size per thread (OMP_STACKSIZE)                    default
 GLOBAL| CPU model name             Intel(R) Xeon(R) Platinum 8174 CPU @ 3.10GHz

 MEMORY| system memory details [Kb]
 MEMORY|                        rank 0           min           max       average
 MEMORY| MemTotal             98436664      98436660      98436664      98436662
 MEMORY| MemFree              84104244      84019100      84104244      84061672
 MEMORY| Buffers                     0             0             0             0
 MEMORY| Cached                2404272       2404272       2409224       2406748
 MEMORY| Slab                  1239348       1238008       1239348       1238678
 MEMORY| SReclaimable           274768        274768        277476        276122
 MEMORY| MemLikelyFree        86783284      86705800      86783284      86744542


 *** Fundamental physical constants (SI units) ***

 *** Literature: B. J. Mohr and B. N. Taylor,
 ***             CODATA recommended values of the fundamental physical
 ***             constants: 2006, Web Version 5.1
 ***             http://physics.nist.gov/constants

 Speed of light in vacuum [m/s]                             2.99792458000000E+08
 Magnetic constant or permeability of vacuum [N/A**2]       1.25663706143592E-06
 Electric constant or permittivity of vacuum [F/m]          8.85418781762039E-12
 Planck constant (h) [J*s]                                  6.62606896000000E-34
 Planck constant (h-bar) [J*s]                              1.05457162825177E-34
 Elementary charge [C]                                      1.60217648700000E-19
 Electron mass [kg]                                         9.10938215000000E-31
 Electron g factor [ ]                                     -2.00231930436220E+00
 Proton mass [kg]                                           1.67262163700000E-27
 Fine-structure constant                                    7.29735253760000E-03
 Rydberg constant [1/m]                                     1.09737315685270E+07
 Avogadro constant [1/mol]                                  6.02214179000000E+23
 Boltzmann constant [J/K]                                   1.38065040000000E-23
 Atomic mass unit [kg]                                      1.66053878200000E-27
 Bohr radius [m]                                            5.29177208590000E-11

 *** Conversion factors ***

 [u] -> [a.u.]                                              1.82288848426455E+03
 [Angstrom] -> [Bohr] = [a.u.]                              1.88972613288564E+00
 [a.u.] = [Bohr] -> [Angstrom]                              5.29177208590000E-01
 [a.u.] -> [s]                                              2.41888432650478E-17
 [a.u.] -> [fs]                                             2.41888432650478E-02
 [a.u.] -> [J]                                              4.35974393937059E-18
 [a.u.] -> [N]                                              8.23872205491840E-08
 [a.u.] -> [K]                                              3.15774647902944E+05
 [a.u.] -> [kJ/mol]                                         2.62549961709828E+03
 [a.u.] -> [kcal/mol]                                       6.27509468713739E+02
 [a.u.] -> [Pa]                                             2.94210107994716E+13
 [a.u.] -> [bar]                                            2.94210107994716E+08
 [a.u.] -> [atm]                                            2.90362800883016E+08
 [a.u.] -> [eV]                                             2.72113838565563E+01
 [a.u.] -> [Hz]                                             6.57968392072181E+15
 [a.u.] -> [1/cm] (wave numbers)                            2.19474631370540E+05
 [a.u./Bohr**2] -> [1/cm]                                   5.14048714338585E+03
 

 CELL_TOP| Volume [angstrom^3]:                                     27000.000000
 CELL_TOP| Vector a [angstrom    30.000     0.000     0.000   |a| =    30.000000
 CELL_TOP| Vector b [angstrom     0.000    30.000     0.000   |b| =    30.000000
 CELL_TOP| Vector c [angstrom     0.000     0.000    30.000   |c| =    30.000000
 CELL_TOP| Angle (b,c), alpha [degree]:                                90.000000
 CELL_TOP| Angle (a,c), beta  [degree]:                                90.000000
 CELL_TOP| Angle (a,b), gamma [degree]:                                90.000000
 CELL_TOP| Numerically orthorhombic:                                         YES
 CELL_TOP| Periodicity                                                      NONE

 GENERATE|  Preliminary Number of Bonds generated:                             0
 GENERATE|  Achieved consistency in connectivity generation.

 CELL| Volume [angstrom^3]:                                         27000.000000
 CELL| Vector a [angstrom]:      30.000     0.000     0.000   |a| =    30.000000
 CELL| Vector b [angstrom]:       0.000    30.000     0.000   |b| =    30.000000
 CELL| Vector c [angstrom]:       0.000     0.000    30.000   |c| =    30.000000
 CELL| Angle (b,c), alpha [degree]:                                    90.000000
 CELL| Angle (a,c), beta  [degree]:                                    90.000000
 CELL| Angle (a,b), gamma [degree]:                                    90.000000
 CELL| Numerically orthorhombic:                                             YES
 CELL| Periodicity                                                          NONE

 CELL_REF| Volume [angstrom^3]:                                     27000.000000
 CELL_REF| Vector a [angstrom    30.000     0.000     0.000   |a| =    30.000000
 CELL_REF| Vector b [angstrom     0.000    30.000     0.000   |b| =    30.000000
 CELL_REF| Vector c [angstrom     0.000     0.000    30.000   |c| =    30.000000
 CELL_REF| Angle (b,c), alpha [degree]:                                90.000000
 CELL_REF| Angle (a,c), beta  [degree]:                                90.000000
 CELL_REF| Angle (a,b), gamma [degree]:                                90.000000
 CELL_REF| Numerically orthorhombic:                                         YES
 CELL_REF| Periodicity                                                      NONE

 *******************************************************************************
 *******************************************************************************
 **                                                                           **
 **     #####                         ##              ##                      **
 **    ##   ##            ##          ##              ##                      **
 **   ##     ##                       ##            ######                    **
 **   ##     ##  ##   ##  ##   #####  ##  ##   ####   ##    #####    #####    **
 **   ##     ##  ##   ##  ##  ##      ## ##   ##      ##   ##   ##  ##   ##   **
 **   ##  ## ##  ##   ##  ##  ##      ####     ###    ##   ######   ######    **
 **    ##  ###   ##   ##  ##  ##      ## ##      ##   ##   ##       ##        **
 **     #######   #####   ##   #####  ##  ##  ####    ##    #####   ##        **
 **           ##                                                    ##        **
 **                                                                           **
 **                                                ... make the atoms dance   **
 **                                                                           **
 **            Copyright (C) by CP2K developers group (2000-2025)             **
 **                      J. Chem. Phys. 152, 194103 (2020)                    **
 **                                                                           **
 *******************************************************************************

 DFT| Spin restricted Kohn-Sham (RKS) calculation                            RKS
 DFT| Multiplicity                                                             1
 DFT| Number of spin states                                                    1
 DFT| Charge                                                                   0
 DFT| Self-interaction correction (SIC)                                       NO
 DFT| Cutoffs: density                                              1.000000E-10
 DFT|          gradient                                             1.000000E-10
 DFT|          tau                                                  1.000000E-10
 DFT|          cutoff_smoothing_range                               0.000000E+00
 DFT| XC density smoothing                                                  NONE
 DFT| XC derivatives                                                          PW

 FUNCTIONAL| PBE:
 FUNCTIONAL| J.P.Perdew, K.Burke, M.Ernzerhof, Phys. Rev. Letter, vol. 77, n 18,
 FUNCTIONAL|  pp. 3865-3868, (1996)sx=0.750sc=1.000{spin unpolarized}           


 QS| Method:                                                                GAPW
 QS| Density plane wave grid type                        NON-SPHERICAL FULLSPACE
 QS| Number of grid levels:                                                    4
 QS| Density cutoff [a.u.]:                                                250.0
 QS| Multi grid cutoff [a.u.]: 1) grid level                               250.0
 QS|                           2) grid level                                83.3
 QS|                           3) grid level                                27.8
 QS|                           4) grid level                                 9.3
 QS| Grid level progression factor:                                          3.0
 QS| Relative density cutoff [a.u.]:                                        50.0
 QS| Interaction thresholds: eps_pgf_orb:                                1.0E-12
 QS|                         eps_filter_matrix:                          0.0E+00
 QS|                         eps_core_charge:                            1.0E-14
 QS|                         eps_rho_gspace:                             1.0E-12
 QS|                         eps_rho_rspace:                             1.0E-12
 QS|                         eps_gvg_rspace:                             1.0E-06
 QS|                         eps_ppl:                                    1.0E-02
 QS|                         eps_ppnl:                                   1.0E-08
 QS| GAPW|      One center basis from orbital basis primitives
 QS| GAPW|                   eps_fit:                                    1.0E-04
 QS| GAPW|                   eps_iso:                                    1.0E-12
 QS| GAPW|                   eps_svd:                                    1.0E-08
 QS| GAPW|                   eps_cpc:                                    1.0E-12
 QS| GAPW|   atom-r-grid: quadrature:                                     GC_LOG
 QS| GAPW|      atom-s-grid:  max l :                                          6
 QS| GAPW|      max_l_rho0 :                                                   2


 ATOMIC KIND INFORMATION

  1. Atomic kind: O                                     Number of atoms:       2

     Orbital Basis Set                                        aug-DZVP-MOLOPT-ae

       Number of orbital shell sets:                                           2
       Number of orbital shells:                                              10
       Number of primitive Cartesian functions:                               12
       Number of Cartesian basis functions:                                   35
       Number of spherical basis functions:                                   30
       Norm type:                                                              2

       Normalised Cartesian orbitals:

                        Set   Shell   Orbital            Exponent    Coefficient

                          1       1    2s                0.090000       0.120905
                                                         0.191936      -0.019521
                                                         0.750068       0.059582
                                                         2.907977       0.000000
                                                        16.368686       0.000000

                          1       2    3px               0.090000       0.000000
                                                         0.191936       0.023686
                                                         0.750068       0.626550
                                                         2.907977       2.082711
                                                        16.368686       3.596544
                          1       2    3py               0.090000       0.000000
                                                         0.191936       0.023686
                                                         0.750068       0.626550
                                                         2.907977       2.082711
                                                        16.368686       3.596544
                          1       2    3pz               0.090000       0.000000
                                                         0.191936       0.023686
                                                         0.750068       0.626550
                                                         2.907977       2.082711
                                                        16.368686       3.596544

                          1       3    4px               0.090000       0.000000
                                                         0.191936       0.196557
                                                         0.750068      -0.157257
                                                         2.907977      -0.566756
                                                        16.368686      -1.323495
                          1       3    4py               0.090000       0.000000
                                                         0.191936       0.196557
                                                         0.750068      -0.157257
                                                         2.907977      -0.566756
                                                        16.368686      -1.323495
                          1       3    4pz               0.090000       0.000000
                                                         0.191936       0.196557
                                                         0.750068      -0.157257
                                                         2.907977      -0.566756
                                                        16.368686      -1.323495

                          1       4    5px               0.090000       0.020606
                                                         0.191936       0.124186
                                                         0.750068       0.098287
                                                         2.907977       0.000000
                                                        16.368686       0.000000
                          1       4    5py               0.090000       0.020606
                                                         0.191936       0.124186
                                                         0.750068       0.098287
                                                         2.907977       0.000000
                                                        16.368686       0.000000
                          1       4    5pz               0.090000       0.020606
                                                         0.191936       0.124186
                                                         0.750068       0.098287
                                                         2.907977       0.000000
                                                        16.368686       0.000000

                          1       5    4dx2              0.090000       0.000000
                                                         0.191936       0.030414
                                                         0.750068       0.724129
                                                         2.907977       1.586204
                                                        16.368686       1.487256
                          1       5    4dxy              0.090000       0.000000
                                                         0.191936       0.052678
                                                         0.750068       1.254227
                                                         2.907977       2.747386
                                                        16.368686       2.576002
                          1       5    4dxz              0.090000       0.000000
                                                         0.191936       0.052678
                                                         0.750068       1.254227
                                                         2.907977       2.747386
                                                        16.368686       2.576002
                          1       5    4dy2              0.090000       0.000000
                                                         0.191936       0.030414
                                                         0.750068       0.724129
                                                         2.907977       1.586204
                                                        16.368686       1.487256
                          1       5    4dyz              0.090000       0.000000
                                                         0.191936       0.052678
                                                         0.750068       1.254227
                                                         2.907977       2.747386
                                                        16.368686       2.576002
                          1       5    4dz2              0.090000       0.000000
                                                         0.191936       0.030414
                                                         0.750068       0.724129
                                                         2.907977       1.586204
                                                        16.368686       1.487256

                          1       6    5dx2              0.090000      -0.010181
                                                         0.191936       0.018957
                                                         0.750068       0.933882
                                                         2.907977       0.008471
                                                        16.368686       0.000000
                          1       6    5dxy              0.090000      -0.017634
                                                         0.191936       0.032834
                                                         0.750068       1.617531
                                                         2.907977       0.014671
                                                        16.368686       0.000000
                          1       6    5dxz              0.090000      -0.017634
                                                         0.191936       0.032834
                                                         0.750068       1.617531
                                                         2.907977       0.014671
                                                        16.368686       0.000000
                          1       6    5dy2              0.090000      -0.010181
                                                         0.191936       0.018957
                                                         0.750068       0.933882
                                                         2.907977       0.008471
                                                        16.368686       0.000000
                          1       6    5dyz              0.090000      -0.017634
                                                         0.191936       0.032834
                                                         0.750068       1.617531
                                                         2.907977       0.014671
                                                        16.368686       0.000000
                          1       6    5dz2              0.090000      -0.010181
                                                         0.191936       0.018957
                                                         0.750068       0.933882
                                                         2.907977       0.008471
                                                        16.368686       0.000000

                          1       7    5fx3              0.090000       0.003073
                                                         0.191936       0.017866
                                                         0.750068       0.208981
                                                         2.907977      -1.809714
                                                        16.368686       0.000000
                          1       7    5fx2y             0.090000       0.006871
                                                         0.191936       0.039950
                                                         0.750068       0.467295
                                                         2.907977      -4.046643
                                                        16.368686       0.000000
                          1       7    5fx2z             0.090000       0.006871
                                                         0.191936       0.039950
                                                         0.750068       0.467295
                                                         2.907977      -4.046643
                                                        16.368686       0.000000
                          1       7    5fxy2             0.090000       0.006871
                                                         0.191936       0.039950
                                                         0.750068       0.467295
                                                         2.907977      -4.046643
                                                        16.368686       0.000000
                          1       7    5fxyz             0.090000       0.011901
                                                         0.191936       0.069196
                                                         0.750068       0.809378
                                                         2.907977      -7.008992
                                                        16.368686       0.000000
                          1       7    5fxz2             0.090000       0.006871
                                                         0.191936       0.039950
                                                         0.750068       0.467295
                                                         2.907977      -4.046643
                                                        16.368686       0.000000
                          1       7    5fy3              0.090000       0.003073
                                                         0.191936       0.017866
                                                         0.750068       0.208981
                                                         2.907977      -1.809714
                                                        16.368686       0.000000
                          1       7    5fy2z             0.090000       0.006871
                                                         0.191936       0.039950
                                                         0.750068       0.467295
                                                         2.907977      -4.046643
                                                        16.368686       0.000000
                          1       7    5fyz2             0.090000       0.006871
                                                         0.191936       0.039950
                                                         0.750068       0.467295
                                                         2.907977      -4.046643
                                                        16.368686       0.000000
                          1       7    5fz3              0.090000       0.003073
                                                         0.191936       0.017866
                                                         0.750068       0.208981
                                                         2.907977      -1.809714
                                                        16.368686       0.000000

                          2       1    1s                0.293338      -0.001581
                                                         0.941883       0.076823
                                                         5.946538      -1.128731
                                                        19.692604      -3.542509
                                                        76.928143      -3.538410
                                                       340.903325      -2.616043
                                                      2266.118827      -1.088852

                          2       2    2s                0.293338       0.124568
                                                         0.941883       0.386056
                                                         5.946538       0.132815
                                                        19.692604       0.350657
                                                        76.928143       1.294240
                                                       340.903325      -0.343055
                                                      2266.118827       0.730749

                          2       3    3s                0.293338       0.411906
                                                         0.941883      -0.735854
                                                         5.946538      -0.324434
                                                        19.692604      -0.580898
                                                        76.928143      -3.484318
                                                       340.903325       2.878168
                                                      2266.118827      -6.417666

     RI Auxiliary Basis Set             RI_aug-DZVP-MOLOPT-ae_N_RI_041_s_p_d_f_g

       Number of orbital shell sets:                                          15
       Number of orbital shells:                                              15
       Number of primitive Cartesian functions:                               15
       Number of Cartesian basis functions:                                   47
       Number of spherical basis functions:                                   41
       Norm type:                                                              2

       Normalised Cartesian orbitals:

                        Set   Shell   Orbital            Exponent    Coefficient

                          1       1    1s                0.310264       0.296284

                          2       1    8px               0.507186       0.610097
                          2       1    8py               0.507186       0.610097
                          2       1    8pz               0.507186       0.610097

                          3       1   12dx2              0.680069       0.838258
                          3       1   12dxy              0.680069       1.451905
                          3       1   12dxz              0.680069       1.451905
                          3       1   12dy2              0.680069       0.838258
                          3       1   12dyz              0.680069       1.451905
                          3       1   12dz2              0.680069       0.838258

                          4       1    2s                0.698825       0.544736

                          5       1    9px               0.888026       1.228774
                          5       1    9py               0.888026       1.228774
                          5       1    9pz               0.888026       1.228774

                          6       1   13dx2              1.305667       2.624922
                          6       1   13dxy              1.305667       4.546498
                          6       1   13dxz              1.305667       4.546498
                          6       1   13dy2              1.305667       2.624922
                          6       1   13dyz              1.305667       4.546498
                          6       1   13dz2              1.305667       2.624922

                          7       1   15fx3              1.485649       3.587285
                          7       1   15fx2y             1.485649       8.021413
                          7       1   15fx2z             1.485649       8.021413
                          7       1   15fxy2             1.485649       8.021413
                          7       1   15fxyz             1.485649      13.893495
                          7       1   15fxz2             1.485649       8.021413
                          7       1   15fy3              1.485649       3.587285
                          7       1   15fy2z             1.485649       8.021413
                          7       1   15fyz2             1.485649       8.021413
                          7       1   15fz3              1.485649       3.587285

                          8       1    3s                1.997891       1.197675

                          9       1   10px               3.536276       6.912304
                          9       1   10py               3.536276       6.912304
                          9       1   10pz               3.536276       6.912304

                         10       1   14dx2              5.998130      37.838790
                         10       1   14dxy              5.998130      65.538708
                         10       1   14dxz              5.998130      65.538708
                         10       1   14dy2              5.998130      37.838790
                         10       1   14dyz              5.998130      65.538708
                         10       1   14dz2              5.998130      37.838790

                         11       1    4s                6.227396       2.809571

                         12       1   11px              13.787974      37.871774
                         12       1   11py              13.787974      37.871774
                         12       1   11pz              13.787974      37.871774

                         13       1    5s               18.637753       6.393008

                         14       1    6s               55.158153      14.425052

                         15       1    7s              162.662525      32.462034

       Atomic covalent radius [Angstrom]:                                  0.730

       Atomic van der Waals radius [Angstrom]:                             1.520

     The atoms of this atomic kind are PAW atoms (GAPW):
       Hard Gaussian function radius:                                      1.512
       Rho0 radius:                                                        1.512
       Maximum GTO radius used for PAW projector construction:            24.566

     GAPW Soft Basis Set                                 aug-DZVP-MOLOPT-ae_soft

       Number of orbital shell sets:                                           2
       Number of orbital shells:                                              10
       Number of primitive Cartesian functions:                                6
       Number of Cartesian basis functions:                                   35
       Number of spherical basis functions:                                   30
       Norm type:                                                              2

       Normalised Cartesian orbitals:

                        Set   Shell   Orbital            Exponent    Coefficient

                          1       1    2s                0.090000       0.120905
                                                         0.191936      -0.019521
                                                         0.750068       0.059582
                                                         2.907977       0.000000

                          1       2    3px               0.090000       0.000000
                                                         0.191936       0.023686
                                                         0.750068       0.626550
                                                         2.907977       2.082711
                          1       2    3py               0.090000       0.000000
                                                         0.191936       0.023686
                                                         0.750068       0.626550
                                                         2.907977       2.082711
                          1       2    3pz               0.090000       0.000000
                                                         0.191936       0.023686
                                                         0.750068       0.626550
                                                         2.907977       2.082711

                          1       3    4px               0.090000       0.000000
                                                         0.191936       0.196557
                                                         0.750068      -0.157257
                                                         2.907977      -0.566756
                          1       3    4py               0.090000       0.000000
                                                         0.191936       0.196557
                                                         0.750068      -0.157257
                                                         2.907977      -0.566756
                          1       3    4pz               0.090000       0.000000
                                                         0.191936       0.196557
                                                         0.750068      -0.157257
                                                         2.907977      -0.566756

                          1       4    5px               0.090000       0.020606
                                                         0.191936       0.124186
                                                         0.750068       0.098287
                                                         2.907977       0.000000
                          1       4    5py               0.090000       0.020606
                                                         0.191936       0.124186
                                                         0.750068       0.098287
                                                         2.907977       0.000000
                          1       4    5pz               0.090000       0.020606
                                                         0.191936       0.124186
                                                         0.750068       0.098287
                                                         2.907977       0.000000

                          1       5    4dx2              0.090000       0.000000
                                                         0.191936       0.030414
                                                         0.750068       0.724129
                                                         2.907977       1.586204
                          1       5    4dxy              0.090000       0.000000
                                                         0.191936       0.052678
                                                         0.750068       1.254227
                                                         2.907977       2.747386
                          1       5    4dxz              0.090000       0.000000
                                                         0.191936       0.052678
                                                         0.750068       1.254227
                                                         2.907977       2.747386
                          1       5    4dy2              0.090000       0.000000
                                                         0.191936       0.030414
                                                         0.750068       0.724129
                                                         2.907977       1.586204
                          1       5    4dyz              0.090000       0.000000
                                                         0.191936       0.052678
                                                         0.750068       1.254227
                                                         2.907977       2.747386
                          1       5    4dz2              0.090000       0.000000
                                                         0.191936       0.030414
                                                         0.750068       0.724129
                                                         2.907977       1.586204

                          1       6    5dx2              0.090000      -0.010181
                                                         0.191936       0.018957
                                                         0.750068       0.933882
                                                         2.907977       0.008471
                          1       6    5dxy              0.090000      -0.017634
                                                         0.191936       0.032834
                                                         0.750068       1.617531
                                                         2.907977       0.014671
                          1       6    5dxz              0.090000      -0.017634
                                                         0.191936       0.032834
                                                         0.750068       1.617531
                                                         2.907977       0.014671
                          1       6    5dy2              0.090000      -0.010181
                                                         0.191936       0.018957
                                                         0.750068       0.933882
                                                         2.907977       0.008471
                          1       6    5dyz              0.090000      -0.017634
                                                         0.191936       0.032834
                                                         0.750068       1.617531
                                                         2.907977       0.014671
                          1       6    5dz2              0.090000      -0.010181
                                                         0.191936       0.018957
                                                         0.750068       0.933882
                                                         2.907977       0.008471

                          1       7    5fx3              0.090000       0.003073
                                                         0.191936       0.017866
                                                         0.750068       0.208981
                                                         2.907977      -1.809714
                          1       7    5fx2y             0.090000       0.006871
                                                         0.191936       0.039950
                                                         0.750068       0.467295
                                                         2.907977      -4.046643
                          1       7    5fx2z             0.090000       0.006871
                                                         0.191936       0.039950
                                                         0.750068       0.467295
                                                         2.907977      -4.046643
                          1       7    5fxy2             0.090000       0.006871
                                                         0.191936       0.039950
                                                         0.750068       0.467295
                                                         2.907977      -4.046643
                          1       7    5fxyz             0.090000       0.011901
                                                         0.191936       0.069196
                                                         0.750068       0.809378
                                                         2.907977      -7.008992
                          1       7    5fxz2             0.090000       0.006871
                                                         0.191936       0.039950
                                                         0.750068       0.467295
                                                         2.907977      -4.046643
                          1       7    5fy3              0.090000       0.003073
                                                         0.191936       0.017866
                                                         0.750068       0.208981
                                                         2.907977      -1.809714
                          1       7    5fy2z             0.090000       0.006871
                                                         0.191936       0.039950
                                                         0.750068       0.467295
                                                         2.907977      -4.046643
                          1       7    5fyz2             0.090000       0.006871
                                                         0.191936       0.039950
                                                         0.750068       0.467295
                                                         2.907977      -4.046643
                          1       7    5fz3              0.090000       0.003073
                                                         0.191936       0.017866
                                                         0.750068       0.208981
                                                         2.907977      -1.809714

                          2       1    1s                0.293338      -0.001581
                                                         0.941883       0.076823

                          2       2    2s                0.293338       0.124568
                                                         0.941883       0.386056

                          2       3    3s                0.293338       0.411906
                                                         0.941883      -0.735854

     AE Potential information for                                            ALL

       Description:                                       All-electron potential
                                          Krack, Parrinello, PCCP 2, 2105 (2000)

       Gaussian exponent of the core charge distribution:               8.154466
       Electronic configuration (s p d ...):                           4   4   0


 MOLECULE KIND INFORMATION


 All atoms are their own molecule, skipping detailed information


 TOTAL NUMBERS AND MAXIMUM NUMBERS

  Total number of            - Atomic kinds:                                   1
                             - Atoms:                                          2
                             - Shell sets:                                     4
                             - Shells:                                        20
                             - Primitive Cartesian functions:                 24
                             - Cartesian basis functions:                     70
                             - Spherical basis functions:                     60

  Maximum angular momentum of the orbital basis functions:                     3


 MODULE QUICKSTEP: ATOMIC COORDINATES IN ANGSTROM

   Atom Kind Element         X             Y             Z       Z(eff)     Mass
      1    1 O     8     15.603900     15.000000     15.000000   8.0000  15.9994
      2    1 O     8     14.396100     15.000000     15.000000   8.0000  15.9994



 SCF PARAMETERS         Density guess:                                    ATOMIC
                        --------------------------------------------------------
                        max_scf:                                             500
                        max_scf_history:                                       0
                        max_diis:                                              4
                        --------------------------------------------------------
                        eps_scf:                                        1.00E-06
                        eps_scf_history:                                0.00E+00
                        eps_diis:                                       1.00E-01
                        eps_eigval:                                     1.00E-05
                        --------------------------------------------------------
                        level_shift [a.u.]:                             0.000000
                        added MOs                                        52    0
                        --------------------------------------------------------
                        Mixing method:                            BROYDEN_MIXING
                                                charge density mixing in g-space
                        --------------------------------------------------------
                        No outer SCF

 PW_GRID| Information for grid number                                          1
 PW_GRID| Grid distributed over                                    24 processors
 PW_GRID| Real space group dimensions                                    24    1
 PW_GRID| the grid is blocked:                                                NO
 PW_GRID| Cutoff [a.u.]                                                    250.0
 PW_GRID| spherical cutoff:                                                   NO
 PW_GRID|   Bounds   1           -202     202                Points:         405
 PW_GRID|   Bounds   2           -202     202                Points:         405
 PW_GRID|   Bounds   3           -202     202                Points:         405
 PW_GRID| Volume element (a.u.^3)  0.2743E-02     Volume (a.u.^3)    182205.0337
 PW_GRID| Grid span                                                    FULLSPACE
 PW_GRID|   Distribution                         Average         Max         Min
 PW_GRID|   G-Vectors                          2767921.9     2768175     2767770
 PW_GRID|   G-Rays                                6834.4        6835        6834
 PW_GRID|   Real Space Points                  2767921.9     2788425     2624400

 PW_GRID| Information for grid number                                          2
 PW_GRID| Number of the reference grid                                         1
 PW_GRID| Grid distributed over                                    24 processors
 PW_GRID| Real space group dimensions                                    24    1
 PW_GRID| the grid is blocked:                                                NO
 PW_GRID| Cutoff [a.u.]                                                     83.3
 PW_GRID| spherical cutoff:                                                   NO
 PW_GRID|   Bounds   1           -120     119                Points:         240
 PW_GRID|   Bounds   2           -120     119                Points:         240
 PW_GRID|   Bounds   3           -120     119                Points:         240
 PW_GRID| Volume element (a.u.^3)  0.1318E-01     Volume (a.u.^3)    182205.0337
 PW_GRID| Grid span                                                    FULLSPACE
 PW_GRID|   Distribution                         Average         Max         Min
 PW_GRID|   G-Vectors                           576000.0      576240      575760
 PW_GRID|   G-Rays                                2400.0        2401        2399
 PW_GRID|   Real Space Points                   576000.0      576000      576000

 PW_GRID| Information for grid number                                          3
 PW_GRID| Number of the reference grid                                         1
 PW_GRID| Grid distributed over                                    24 processors
 PW_GRID| Real space group dimensions                                    24    1
 PW_GRID| the grid is blocked:                                                NO
 PW_GRID| Cutoff [a.u.]                                                     27.8
 PW_GRID| spherical cutoff:                                                   NO
 PW_GRID|   Bounds   1            -67      67                Points:         135
 PW_GRID|   Bounds   2            -67      67                Points:         135
 PW_GRID|   Bounds   3            -67      67                Points:         135
 PW_GRID| Volume element (a.u.^3)  0.7406E-01     Volume (a.u.^3)    182205.0337
 PW_GRID| Grid span                                                    FULLSPACE
 PW_GRID|   Distribution                         Average         Max         Min
 PW_GRID|   G-Vectors                           102515.6      102735      102330
 PW_GRID|   G-Rays                                 759.4         761         758
 PW_GRID|   Real Space Points                   102515.6      109350       91125

 PW_GRID| Information for grid number                                          4
 PW_GRID| Number of the reference grid                                         1
 PW_GRID| Grid distributed over                                    24 processors
 PW_GRID| Real space group dimensions                                    24    1
 PW_GRID| the grid is blocked:                                                NO
 PW_GRID| Cutoff [a.u.]                                                      9.3
 PW_GRID| spherical cutoff:                                                   NO
 PW_GRID|   Bounds   1            -40      39                Points:          80
 PW_GRID|   Bounds   2            -40      39                Points:          80
 PW_GRID|   Bounds   3            -40      39                Points:          80
 PW_GRID| Volume element (a.u.^3)  0.3559         Volume (a.u.^3)    182205.0337
 PW_GRID| Grid span                                                    FULLSPACE
 PW_GRID|   Distribution                         Average         Max         Min
 PW_GRID|   G-Vectors                            21333.3       21360       21280
 PW_GRID|   G-Rays                                 266.7         267         266
 PW_GRID|   Real Space Points                    21333.3       25600       19200

 POISSON| Solver                                                         WAVELET
 POISSON| Wavelet| Scaling function                                           40
 POISSON| Periodicity                                                       NONE

 RS_GRID| Information for grid number                                          1
 RS_GRID|   Bounds   1           -202     202                Points:         405
 RS_GRID|   Bounds   2           -202     202                Points:         405
 RS_GRID|   Bounds   3           -202     202                Points:         405
 RS_GRID| Real space distribution over                                  4 groups
 RS_GRID| Real space distribution along direction                              2
 RS_GRID| Border size                                                         34
 RS_GRID| Real space distribution over                                  6 groups
 RS_GRID| Real space distribution along direction                              3
 RS_GRID| Border size                                                         34
 RS_GRID|   Distribution                         Average         Max         Min
 RS_GRID|   Planes                                 169.2         170         169
 RS_GRID|   Distribution                         Average         Max         Min
 RS_GRID|   Planes                                 135.5         136         135

 RS_GRID| Information for grid number                                          2
 RS_GRID|   Bounds   1           -120     119                Points:         240
 RS_GRID|   Bounds   2           -120     119                Points:         240
 RS_GRID|   Bounds   3           -120     119                Points:         240
 RS_GRID| Real space distribution over                                  4 groups
 RS_GRID| Real space distribution along direction                              2
 RS_GRID| Border size                                                         32
 RS_GRID| Real space distribution over                                  6 groups
 RS_GRID| Real space distribution along direction                              3
 RS_GRID| Border size                                                         32
 RS_GRID|   Distribution                         Average         Max         Min
 RS_GRID|   Planes                                 124.0         124         124
 RS_GRID|   Distribution                         Average         Max         Min
 RS_GRID|   Planes                                 104.0         104         104

 RS_GRID| Information for grid number                                          3
 RS_GRID|   Bounds   1            -67      67                Points:         135
 RS_GRID|   Bounds   2            -67      67                Points:         135
 RS_GRID|   Bounds   3            -67      67                Points:         135
 RS_GRID| Real space fully replicated
 RS_GRID| Group size                                                           1

 RS_GRID| Information for grid number                                          4
 RS_GRID|   Bounds   1            -40      39                Points:          80
 RS_GRID|   Bounds   2            -40      39                Points:          80
 RS_GRID|   Bounds   3            -40      39                Points:          80
 RS_GRID| Real space fully replicated
 RS_GRID| Group size                                                           1

  HFX_INFO| Replica ID:                                                        1
  HFX_INFO| FRACTION:                                               0.2500000000
  HFX_INFO| Interaction Potential:                                       COULOMB
  HFX_INFO| EPS_SCHWARZ:                                                 1.0E-10
  HFX_INFO| EPS_SCHWARZ_FORCES                                           1.0E-08
  HFX_INFO| EPS_STORAGE_SCALING:                                         1.0E+00
  HFX_INFO| NBINS:                                                            64
  HFX_INFO| BLOCK_SIZE:                                                        1
  HFX_INFO| Number of periodic shells considered:                           NONE
  HFX_INFO| Number of periodic cells considered:                            NONE

 
 RI-RPA| using GPW style
 

 OVERLAP MATRIX CONDITION NUMBER
 1-Norm Condition Number (Estimate)
   CN : |A|*|A^-1|:  5.696E+000 *  6.106E+003   = 3.478E+004  Log(1-CN):  4.5413
 1-Norm and 2-Norm Condition Numbers using Diagonalization
   CN : |A|*|A^-1|:  5.696E+000 *  6.106E+003   = 3.478E+004  Log(1-CN):  4.5413
   CN : max/min ev:  4.081E+000 /  2.235E-004   = 1.825E+004  Log(2-CN):  4.2614

 Number of electrons:                                                         16
 Number of occupied orbitals:                                                  8
 Number of molecular orbitals:                                                60

 Number of orbital functions:                                                 60
 Number of independent orbital functions:                                     60

 Extrapolation method: initial_guess

 Atomic guess: The first density matrix is obtained in terms of atomic orbitals
               and electronic configurations assigned to each atomic kind

 Guess for atomic kind: O

 Electronic structure
    Total number of core electrons                                          0.00
    Total number of valence electrons                                       8.00
    Total number of electrons                                               8.00
    Multiplicity                                                   not specified
    S      2.00  2.00
    P      4.00


 *******************************************************************************
                  Iteration          Convergence                     Energy [au]
 *******************************************************************************
                          1        0.848674                     -74.203659346590
                          2        0.676538                     -74.224350300929
                          3        0.118146E-01                 -74.325384117638
                          4        0.875023E-03                 -74.325411956579
                          5        0.262407E-04                 -74.325412100097
                          6        0.953925E-07                 -74.325412100225

 Energy components [Hartree]           Total Energy ::          -74.325412100225
                                        Band Energy ::          -40.703914598313
                                     Kinetic Energy ::           74.466117831440
                                   Potential Energy ::         -148.791529931665
                                      Virial (-V/T) ::            1.998110473121
                                        Core Energy ::         -102.666843544949
                                          XC Energy ::           -7.743421966386
                                     Coulomb Energy ::           36.084853411110

 Orbital energies  State     L     Occupation   Energy[a.u.]          Energy[eV]

                       1     0          2.000     -18.799663         -511.564844
                       2     0          2.000      -0.852501          -23.197720

                       1     1          4.000      -0.349897           -9.521179


 Total Electron Density at R=0:                                       292.094851
 Re-scaling the density matrix to get the right number of electrons
                  # Electrons              Trace(P)               Scaling factor
                           16                16.000                        1.000


 SCF WAVEFUNCTION OPTIMIZATION

  Step     Update method      Time    Convergence         Total energy    Change
  ------------------------------------------------------------------------------

  HFX_MEM_INFO| Est. max. program size before HFX [MiB]:                    2144
  HFX_MEM_INFO| Number of cart. primitive ERI's calculated:            760130289
  HFX_MEM_INFO| Number of sph. ERI's calculated:                         4860000
  HFX_MEM_INFO| Number of sph. ERI's stored in-core:                     4860000
  HFX_MEM_INFO| Number of sph. ERI's stored on disk:                           0
  HFX_MEM_INFO| Number of sph. ERI's calculated on the fly:                    0
  HFX_MEM_INFO| Total memory consumption ERI's RAM [MiB]:                     21
  HFX_MEM_INFO| Whereof max-vals [MiB]:                                        1
  HFX_MEM_INFO| Total compression factor ERI's RAM:                         1.81
  HFX_MEM_INFO| Total memory consumption ERI's disk [MiB]:                     0
  HFX_MEM_INFO| Total compression factor ERI's disk:                        0.00
  HFX_MEM_INFO| Size of density/Fock matrix [MiB]:                             0
  HFX_MEM_INFO| Size of buffers [MiB]:                                        16
  HFX_MEM_INFO| Est. max. program size after HFX  [MiB]:                    2679

     1 NoMix/Diag. 0.10E+00   19.5     1.13822831      -150.1636200753 -1.50E+02
     2 Broy./Diag. 0.10E+00    4.7     0.03820391      -149.6438966509  5.20E-01
     3 Broy./Diag. 0.10E+00    4.8     0.03961351      -149.7745386704 -1.31E-01
     4 Broy./Diag. 0.10E+00    4.8     0.01448580      -150.0297173680 -2.55E-01
     5 Broy./Diag. 0.10E+00    4.8     0.00603423      -150.0287501875  9.67E-04
     6 Broy./Diag. 0.10E+00    4.9     0.02288662      -149.9136488717  1.15E-01
     7 Broy./Diag. 0.10E+00    5.0     0.00156736      -149.8480120309  6.56E-02
     8 Broy./Diag. 0.10E+00    5.1     0.00086026      -149.8558791348 -7.87E-03
     9 Broy./Diag. 0.10E+00    5.3     0.00272202      -149.8953374605 -3.95E-02
    10 Broy./Diag. 0.10E+00    5.4     0.00114502      -149.9167949660 -2.15E-02
    11 Broy./Diag. 0.10E+00    5.3     0.00178844      -149.9022440889  1.46E-02
    12 Broy./Diag. 0.10E+00    5.3     0.00065634      -149.8959642855  6.28E-03
    13 Broy./Diag. 0.10E+00    5.3     0.00073079      -149.8979622833 -2.00E-03
    14 Broy./Diag. 0.10E+00    5.4     0.00176301      -149.8974229809  5.39E-04
    15 Broy./Diag. 0.10E+00    5.3     0.00021608      -149.8972554398  1.68E-04
    16 Broy./Diag. 0.10E+00    5.3     0.00160681      -149.8999700136 -2.71E-03
    17 Broy./Diag. 0.10E+00    5.3     0.00111126      -149.9008100109 -8.40E-04
    18 Broy./Diag. 0.10E+00    5.3     0.00028260      -149.9003101505  5.00E-04
    19 Broy./Diag. 0.10E+00    5.3     0.00036044      -149.9002092643  1.01E-04
    20 Broy./Diag. 0.10E+00    5.3     0.00035648      -149.8996487453  5.61E-04
    21 Broy./Diag. 0.10E+00    5.3     0.00019670      -149.8982007764  1.45E-03
    22 Broy./Diag. 0.10E+00    5.3     0.00004896      -149.8976337169  5.67E-04
    23 Broy./Diag. 0.10E+00    5.3     0.00007318      -149.8979933350 -3.60E-04
    24 Broy./Diag. 0.10E+00    5.3     0.00005821      -149.8981681552 -1.75E-04
    25 Broy./Diag. 0.10E+00    5.4     0.00025490      -149.8979388458  2.29E-04
    26 Broy./Diag. 0.10E+00    5.4     0.00005163      -149.8980188626 -8.00E-05
    27 Broy./Diag. 0.10E+00    5.4     0.00005678      -149.8981688522 -1.50E-04
    28 Broy./Diag. 0.10E+00    5.4     0.00003941      -149.8982200759 -5.12E-05
    29 Broy./Diag. 0.10E+00    5.3     0.00004928      -149.8982222952 -2.22E-06
    30 Broy./Diag. 0.10E+00    5.3     0.00005636      -149.8981787105  4.36E-05
    31 Broy./Diag. 0.10E+00    5.3     0.00007761      -149.8980993775  7.93E-05
    32 Broy./Diag. 0.10E+00    5.3     0.00010227      -149.8980834684  1.59E-05
    33 Broy./Diag. 0.10E+00    5.4     0.00014657      -149.8981252248 -4.18E-05
    34 Broy./Diag. 0.10E+00    5.4     0.00023137      -149.8981050268  2.02E-05
    35 Broy./Diag. 0.10E+00    5.3     0.00035430      -149.8980929615  1.21E-05
    36 Broy./Diag. 0.10E+00    5.3     0.00054932      -149.8980908459  2.12E-06
    37 Broy./Diag. 0.10E+00    5.4     0.00085375      -149.8980812513  9.59E-06
    38 Broy./Diag. 0.10E+00    5.3     0.00132888      -149.8980737861  7.47E-06
    39 Broy./Diag. 0.10E+00    5.5     0.00208092      -149.8981043719 -3.06E-05
    40 Broy./Diag. 0.10E+00    5.3     0.00323917      -149.8981527827 -4.84E-05
    41 Broy./Diag. 0.10E+00    5.4     0.00503992      -149.8982191929 -6.64E-05
    42 Broy./Diag. 0.10E+00    5.4     0.00781161      -149.8983022929 -8.31E-05
    43 Broy./Diag. 0.10E+00    5.3     0.01212139      -149.8982086567  9.36E-05
    44 Broy./Diag. 0.10E+00    5.3     0.01861364      -149.8980401186  1.69E-04
    45 Broy./Diag. 0.10E+00    5.3     0.02848125      -149.8978481448  1.92E-04
    46 Broy./Diag. 0.10E+00    5.3     0.04273650      -149.8975273276  3.21E-04
    47 Broy./Diag. 0.10E+00    5.3     0.06148670      -149.8969609093  5.66E-04
    48 Broy./Diag. 0.10E+00    5.3     0.08076060      -149.8958509246  1.11E-03
    49 Broy./Diag. 0.10E+00    5.4     0.10647618      -149.8933229677  2.53E-03
    50 Broy./Diag. 0.10E+00    5.4     0.15614285      -149.8881139600  5.21E-03
    51 Broy./Diag. 0.10E+00    5.3     0.17871172      -149.8792689431  8.85E-03
    52 Broy./Diag. 0.10E+00    5.3     0.15895707      -149.8672807951  1.20E-02
    53 Broy./Diag. 0.10E+00    5.4     0.11578870      -149.8551293842  1.22E-02
    54 Broy./Diag. 0.10E+00    5.3     0.08975332      -149.8452525306  9.88E-03
    55 Broy./Diag. 0.10E+00    5.3     0.07943544      -149.8383577717  6.89E-03
    56 Broy./Diag. 0.10E+00    5.3     0.06440745      -149.8339988160  4.36E-03
    57 Broy./Diag. 0.10E+00    5.4     0.04991389      -149.8314307250  2.57E-03
    58 Broy./Diag. 0.10E+00    5.4     0.03797638      -149.8299765530  1.45E-03
    59 Broy./Diag. 0.10E+00    5.3     0.02938844      -149.8294183197  5.58E-04
    60 Broy./Diag. 0.10E+00    5.3     0.02714349      -149.8334264466 -4.01E-03
    61 Broy./Diag. 0.10E+00    5.3     0.01950166      -149.8279488301  5.48E-03
    62 Broy./Diag. 0.10E+00    5.3     0.02054324      -149.8038478794  2.41E-02
    63 Broy./Diag. 0.10E+00    5.3     0.01448413      -149.7910271675  1.28E-02
    64 Broy./Diag. 0.10E+00    5.5     0.02289856      -149.7658157071  2.52E-02
    65 Broy./Diag. 0.10E+00    5.4     0.01305955      -149.7343977381  3.14E-02
    66 Broy./Diag. 0.10E+00    5.4     0.04981875      -149.7525861274 -1.82E-02
    67 Broy./Diag. 0.10E+00    5.3     0.14924173      -149.5847045441  1.68E-01
    68 Broy./Diag. 0.10E+00    5.3     0.13315937      -149.5176143792  6.71E-02
    69 Broy./Diag. 0.10E+00    5.3     0.05287468      -149.7110253052 -1.93E-01
    70 Broy./Diag. 0.10E+00    5.3     0.11792200      -149.8122393006 -1.01E-01
    71 Broy./Diag. 0.10E+00    5.3     0.14913907      -149.7129874471  9.93E-02
    72 Broy./Diag. 0.10E+00    5.4     0.06055234      -149.6873466467  2.56E-02
    73 Broy./Diag. 0.10E+00    5.4     0.06466194      -149.6575630179  2.98E-02
    74 Broy./Diag. 0.10E+00    5.4     0.03750987      -149.6026208164  5.49E-02
    75 Broy./Diag. 0.10E+00    5.3     0.05623976      -149.6457618163 -4.31E-02
    76 Broy./Diag. 0.10E+00    5.3     0.03193161      -149.7652830438 -1.20E-01
    77 Broy./Diag. 0.10E+00    5.4     0.17541895      -149.8457587743 -8.05E-02
    78 Broy./Diag. 0.10E+00    5.4     0.10905800      -150.0282447625 -1.82E-01
    79 Broy./Diag. 0.10E+00    5.3     0.07222246      -150.1009050346 -7.27E-02
    80 Broy./Diag. 0.10E+00    5.3     0.07725841      -150.1141456740 -1.32E-02
    81 Broy./Diag. 0.10E+00    5.4     0.05414826      -150.1193904766 -5.24E-03
    82 Broy./Diag. 0.10E+00    5.4     0.03559027      -150.0826856914  3.67E-02
    83 Broy./Diag. 0.10E+00    5.3     0.11030885      -150.0684278294  1.43E-02
    84 Broy./Diag. 0.10E+00    5.4     0.11359942      -149.9797670582  8.87E-02
    85 Broy./Diag. 0.10E+00    5.3     0.10350329      -149.9341061274  4.57E-02
    86 Broy./Diag. 0.10E+00    5.3     0.20573186      -149.8771654810  5.69E-02
    87 Broy./Diag. 0.10E+00    5.4     0.22487610      -149.8977839792 -2.06E-02
    88 Broy./Diag. 0.10E+00    5.4     0.16931740      -149.8547448486  4.30E-02
    89 Broy./Diag. 0.10E+00    5.4     0.05835067      -149.7966488539  5.81E-02
    90 Broy./Diag. 0.10E+00    5.4     0.01728706      -149.7549756003  4.17E-02
    91 Broy./Diag. 0.10E+00    5.3     0.00955569      -149.7391522819  1.58E-02
    92 Broy./Diag. 0.10E+00    5.3     0.02534305      -149.7318978768  7.25E-03
    93 Broy./Diag. 0.10E+00    5.3     0.02398074      -149.7258440114  6.05E-03
    94 Broy./Diag. 0.10E+00    5.3     0.07267148      -149.7215832515  4.26E-03
    95 Broy./Diag. 0.10E+00    5.4     0.08472622      -149.6962016850  2.54E-02
    96 Broy./Diag. 0.10E+00    5.3     0.15940443      -149.6788676522  1.73E-02
    97 Broy./Diag. 0.10E+00    5.4     0.17544179      -149.7013994253 -2.25E-02
    98 Broy./Diag. 0.10E+00    5.4     0.11764166      -149.7322989974 -3.09E-02
    99 Broy./Diag. 0.10E+00    5.3     0.11317315      -149.7385584615 -6.26E-03
   100 Broy./Diag. 0.10E+00    5.4     0.02177372      -149.7805078528 -4.19E-02
   101 Broy./Diag. 0.10E+00    5.3     0.03332084      -149.8302509413 -4.97E-02
   102 Broy./Diag. 0.10E+00    5.3     0.04905706      -149.8259243741  4.33E-03
   103 Broy./Diag. 0.10E+00    5.3     0.04895362      -149.8264438786 -5.20E-04
   104 Broy./Diag. 0.10E+00    5.5     0.11012790      -149.8033174675  2.31E-02
   105 Broy./Diag. 0.10E+00    5.4     0.13932437      -149.7884969274  1.48E-02
   106 Broy./Diag. 0.10E+00    5.4     0.17083374      -149.7755917223  1.29E-02
   107 Broy./Diag. 0.10E+00    5.4     0.08142399      -149.7846601385 -9.07E-03
   108 Broy./Diag. 0.10E+00    5.4     0.01543982      -149.7822833253  2.38E-03
   109 Broy./Diag. 0.10E+00    5.3     0.01819543      -149.8211332939 -3.88E-02
   110 Broy./Diag. 0.10E+00    5.3     0.02601000      -149.7766061033  4.45E-02
   111 Broy./Diag. 0.10E+00    5.4     0.02501309      -149.7731634589  3.44E-03
   112 Broy./Diag. 0.10E+00    5.4     0.05406092      -149.8163960052 -4.32E-02
   113 Broy./Diag. 0.10E+00    5.5     0.08473585      -149.8419719066 -2.56E-02
   114 Broy./Diag. 0.10E+00    5.5     0.13649276      -149.8486616543 -6.69E-03
   115 Broy./Diag. 0.10E+00    5.4     0.17847698      -149.8289343581  1.97E-02
   116 Broy./Diag. 0.10E+00    5.3     0.18106130      -149.7967636262  3.22E-02
   117 Broy./Diag. 0.10E+00    5.4     0.08140110      -149.7966850391  7.86E-05
   118 Broy./Diag. 0.10E+00    5.4     0.02775146      -149.8398131378 -4.31E-02
   119 Broy./Diag. 0.10E+00    5.3     0.04984948      -149.8770476275 -3.72E-02
   120 Broy./Diag. 0.10E+00    5.3     0.05444816      -149.8742118539  2.84E-03
   121 Broy./Diag. 0.10E+00    5.4     0.07635745      -149.8852840116 -1.11E-02
   122 Broy./Diag. 0.10E+00    5.4     0.10079752      -149.8879938667 -2.71E-03
   123 Broy./Diag. 0.10E+00    5.3     0.14319774      -149.8984420046 -1.04E-02
   124 Broy./Diag. 0.10E+00    5.3     0.14186406      -149.9054992427 -7.06E-03
   125 Broy./Diag. 0.10E+00    5.3     0.07823449      -149.9020955843  3.40E-03
   126 Broy./Diag. 0.10E+00    5.4     0.03410202      -149.8929950555  9.10E-03
   127 Broy./Diag. 0.10E+00    5.3     0.03159374      -149.8897477710  3.25E-03
   128 Broy./Diag. 0.10E+00    5.4     0.03615359      -149.8793982221  1.03E-02
   129 Broy./Diag. 0.10E+00    5.4     0.03293668      -149.8578511777  2.15E-02
   130 Broy./Diag. 0.10E+00    5.4     0.02632516      -149.8525765807  5.27E-03
   131 Broy./Diag. 0.10E+00    5.4     0.01527709      -149.8556323658 -3.06E-03
   132 Broy./Diag. 0.10E+00    5.4     0.00773907      -149.8786619241 -2.30E-02
   133 Broy./Diag. 0.10E+00    5.4     0.00716072      -149.9056408045 -2.70E-02
   134 Broy./Diag. 0.10E+00    5.3     0.00842482      -149.9213173409 -1.57E-02
   135 Broy./Diag. 0.10E+00    5.4     0.00559285      -149.9152852954  6.03E-03
   136 Broy./Diag. 0.10E+00    5.4     0.01197507      -149.9130752661  2.21E-03
   137 Broy./Diag. 0.10E+00    5.5     0.00772049      -149.9251650795 -1.21E-02
   138 Broy./Diag. 0.10E+00    5.5     0.00243782      -149.9351355886 -9.97E-03
   139 Broy./Diag. 0.10E+00    5.3     0.00915679      -149.9209045829  1.42E-02
   140 Broy./Diag. 0.10E+00    5.4     0.00813885      -149.9065936725  1.43E-02
   141 Broy./Diag. 0.10E+00    5.3     0.00806004      -149.9023111430  4.28E-03
   142 Broy./Diag. 0.10E+00    5.3     0.01083457      -149.9018326705  4.78E-04
   143 Broy./Diag. 0.10E+00    5.3     0.01503703      -149.9011839444  6.49E-04
   144 Broy./Diag. 0.10E+00    5.3     0.02271438      -149.9006944024  4.90E-04
   145 Broy./Diag. 0.10E+00    5.5     0.03367671      -149.9002395610  4.55E-04
   146 Broy./Diag. 0.10E+00    5.4     0.04843630      -149.9001000217  1.40E-04
   147 Broy./Diag. 0.10E+00    5.3     0.06451167      -149.8995018565  5.98E-04
   148 Broy./Diag. 0.10E+00    5.3     0.09455623      -149.8978044066  1.70E-03
   149 Broy./Diag. 0.10E+00    5.4     0.14294170      -149.8936558562  4.15E-03
   150 Broy./Diag. 0.10E+00    5.4     0.17475075      -149.8863663009  7.29E-03
   151 Broy./Diag. 0.10E+00    5.3     0.16591860      -149.8760741154  1.03E-02
   152 Broy./Diag. 0.10E+00    5.3     0.12571758      -149.8637830108  1.23E-02
   153 Broy./Diag. 0.10E+00    5.4     0.10182153      -149.8525563305  1.12E-02
   154 Broy./Diag. 0.10E+00    5.4     0.09235889      -149.8438413102  8.72E-03
   155 Broy./Diag. 0.10E+00    5.3     0.07555166      -149.8386449458  5.20E-03
   156 Broy./Diag. 0.10E+00    5.5     0.05879508      -149.8357279919  2.92E-03
   157 Broy./Diag. 0.10E+00    5.3     0.04447392      -149.8343831824  1.34E-03
   158 Broy./Diag. 0.10E+00    5.3     0.03299408      -149.8343443314  3.89E-05
   159 Broy./Diag. 0.10E+00    5.3     0.02442260      -149.8393400419 -5.00E-03
   160 Broy./Diag. 0.10E+00    5.3     0.02575260      -149.8340362733  5.30E-03
   161 Broy./Diag. 0.10E+00    5.4     0.05588059      -149.8525220194 -1.85E-02
   162 Broy./Diag. 0.10E+00    5.4     0.13196042      -149.8902297621 -3.77E-02
   163 Broy./Diag. 0.10E+00    5.4     0.16003914      -149.9115629096 -2.13E-02
   164 Broy./Diag. 0.10E+00    5.3     0.13321535      -149.9334870695 -2.19E-02
   165 Broy./Diag. 0.10E+00    5.3     0.08634030      -149.9659084770 -3.24E-02
   166 Broy./Diag. 0.10E+00    5.4     0.04725767      -149.8337049422  1.32E-01
   167 Broy./Diag. 0.10E+00    5.3     0.05435090      -149.6596677073  1.74E-01
   168 Broy./Diag. 0.10E+00    5.3     0.04472428      -149.6104314299  4.92E-02
   169 Broy./Diag. 0.10E+00    5.4     0.06762948      -149.5548043773  5.56E-02
   170 Broy./Diag. 0.10E+00    5.4     0.07846952      -149.5350078659  1.98E-02
   171 Broy./Diag. 0.10E+00    5.4     0.20053412      -149.5401324188 -5.12E-03
   172 Broy./Diag. 0.10E+00    5.3     0.21367593      -149.7179800225 -1.78E-01
   173 Broy./Diag. 0.10E+00    5.3     0.18236492      -149.7103007608  7.68E-03
   174 Broy./Diag. 0.10E+00    5.4     0.08272135      -149.7173306175 -7.03E-03
   175 Broy./Diag. 0.10E+00    5.3     0.09146467      -149.7412149842 -2.39E-02
   176 Broy./Diag. 0.10E+00    5.4     0.10996688      -149.7998063637 -5.86E-02
   177 Broy./Diag. 0.10E+00    5.5     0.09869644      -149.8216740534 -2.19E-02
   178 Broy./Diag. 0.10E+00    5.4     0.10614819      -149.7635273895  5.81E-02
   179 Broy./Diag. 0.10E+00    5.4     0.10961723      -149.8335153566 -7.00E-02
   180 Broy./Diag. 0.10E+00    5.3     0.02522850      -149.9559217326 -1.22E-01
   181 Broy./Diag. 0.10E+00    5.4     0.04609116      -149.9168710336  3.91E-02
   182 Broy./Diag. 0.10E+00    5.4     0.03720786      -149.9822224506 -6.54E-02
   183 Broy./Diag. 0.10E+00    5.4     0.02973629      -150.1221661435 -1.40E-01
   184 Broy./Diag. 0.10E+00    5.4     0.15140475      -150.1469620963 -2.48E-02
   185 Broy./Diag. 0.10E+00    5.4     0.22525038      -150.2152722962 -6.83E-02
   186 Broy./Diag. 0.10E+00    5.5     0.15561928      -150.2433632381 -2.81E-02
   187 Broy./Diag. 0.10E+00    5.3     0.20287931      -150.1441182038  9.92E-02
   188 Broy./Diag. 0.10E+00    5.4     0.14860028      -150.1802246768 -3.61E-02
   189 Broy./Diag. 0.10E+00    5.4     0.15240247      -150.1631716136  1.71E-02
   190 Broy./Diag. 0.10E+00    5.4     0.07516667      -150.0810712394  8.21E-02
   191 Broy./Diag. 0.10E+00    5.3     0.09076324      -149.8618090666  2.19E-01
   192 Broy./Diag. 0.10E+00    5.3     0.08621885      -149.7992507051  6.26E-02
   193 Broy./Diag. 0.10E+00    5.4     0.22836432      -149.7017557676  9.75E-02
   194 Broy./Diag. 0.10E+00    5.4     0.17268836      -149.7015105781  2.45E-04
   195 Broy./Diag. 0.10E+00    5.4     0.19733807      -149.6898857874  1.16E-02
[...]
   418 Broy./Diag. 0.10E+00    5.5     0.17787472      -149.8831140906  8.22E-03
   419 Broy./Diag. 0.10E+00    5.3     0.16702024      -149.8711500865  1.20E-02
   420 Broy./Diag. 0.10E+00    5.3     0.12468579      -149.8586655636  1.25E-02
   421 Broy./Diag. 0.10E+00    5.3     0.09529346      -149.8482784244  1.04E-02
   422 Broy./Diag. 0.10E+00    5.3     0.08955391      -149.8402815895  8.00E-03
   423 Broy./Diag. 0.10E+00    5.3     0.07500020      -149.8354120808  4.87E-03
   424 Broy./Diag. 0.10E+00    5.3     0.06008402      -149.8322908882  3.12E-03
   425 Broy./Diag. 0.10E+00    5.5     0.04710283      -149.8308286211  1.46E-03
   426 Broy./Diag. 0.10E+00    5.3     0.03885480      -149.8332130807 -2.38E-03
   427 Broy./Diag. 0.10E+00    5.3     0.04631483      -149.8450029165 -1.18E-02
   428 Broy./Diag. 0.10E+00    5.3     0.06227825      -149.8522633599 -7.26E-03
   429 Broy./Diag. 0.10E+00    5.4     0.09077215      -149.8662323491 -1.40E-02
   430 Broy./Diag. 0.10E+00    5.4     0.11741031      -149.8981569812 -3.19E-02
   431 Broy./Diag. 0.10E+00    5.4     0.11401434      -149.8818072255  1.63E-02
   432 Broy./Diag. 0.10E+00    5.4     0.10316795      -149.8316038363  5.02E-02
   433 Broy./Diag. 0.10E+00    5.4     0.07416238      -149.8274012353  4.20E-03
   434 Broy./Diag. 0.10E+00    5.4     0.04353987      -149.8857297377 -5.83E-02
   435 Broy./Diag. 0.10E+00    5.3     0.04548279      -150.1086962403 -2.23E-01
   436 Broy./Diag. 0.10E+00    5.4     0.07688890      -150.5541603091 -4.45E-01
   437 Broy./Diag. 0.10E+00    5.4     0.02579304      -150.8094340003 -2.55E-01
   438 Broy./Diag. 0.10E+00    5.3     0.03499957      -150.6783738547  1.31E-01
   439 Broy./Diag. 0.10E+00    5.3     0.06195049      -150.3588139674  3.20E-01
   440 Broy./Diag. 0.10E+00    5.4     0.03290102      -150.0971701269  2.62E-01
   441 Broy./Diag. 0.10E+00    5.4     0.02373705      -149.9743962441  1.23E-01
   442 Broy./Diag. 0.10E+00    5.4     0.02564103      -149.9503753023  2.40E-02
   443 Broy./Diag. 0.10E+00    5.4     0.00417621      -149.9591999835 -8.82E-03
   444 Broy./Diag. 0.10E+00    5.3     0.03922282      -149.9442400234  1.50E-02
   445 Broy./Diag. 0.10E+00    5.4     0.09068144      -149.9325228710  1.17E-02
   446 Broy./Diag. 0.10E+00    5.3     0.11437169      -149.9263717034  6.15E-03
   447 Broy./Diag. 0.10E+00    5.4     0.13349248      -149.9299054565 -3.53E-03
   448 Broy./Diag. 0.10E+00    5.3     0.17658985      -149.9571992554 -2.73E-02
   449 Broy./Diag. 0.10E+00    5.4     0.17532506      -149.9619950414 -4.80E-03
   450 Broy./Diag. 0.10E+00    5.4     0.13115108      -149.9462976564  1.57E-02
   451 Broy./Diag. 0.10E+00    5.3     0.10278417      -149.9190724687  2.72E-02
   452 Broy./Diag. 0.10E+00    5.3     0.07456009      -149.8837962410  3.53E-02
   453 Broy./Diag. 0.10E+00    5.3     0.06690525      -149.8626327385  2.12E-02
   454 Broy./Diag. 0.10E+00    5.3     0.05366583      -149.8518592324  1.08E-02
   455 Broy./Diag. 0.10E+00    5.4     0.05111442      -149.8320410422  1.98E-02
   456 Broy./Diag. 0.10E+00    5.3     0.05898001      -149.8086270726  2.34E-02
   457 Broy./Diag. 0.10E+00    5.4     0.09075399      -149.8479447490 -3.93E-02
   458 Broy./Diag. 0.10E+00    5.4     0.11977763      -149.9275541369 -7.96E-02
   459 Broy./Diag. 0.10E+00    5.4     0.13936411      -150.1190709484 -1.92E-01
   460 Broy./Diag. 0.10E+00    5.3     0.08646620      -150.3047082850 -1.86E-01
   461 Broy./Diag. 0.10E+00    5.4     0.08879988      -150.3675853274 -6.29E-02
   462 Broy./Diag. 0.10E+00    5.4     0.07066724      -150.3485373454  1.90E-02
   463 Broy./Diag. 0.10E+00    5.3     0.04381530      -150.3699510812 -2.14E-02
   464 Broy./Diag. 0.10E+00    5.3     0.02059019      -150.3929249650 -2.30E-02
   465 Broy./Diag. 0.10E+00    5.4     0.02724747      -150.4079864714 -1.51E-02
   466 Broy./Diag. 0.10E+00    5.4     0.04260440      -150.1988844277  2.09E-01
   467 Broy./Diag. 0.10E+00    5.3     0.01985918      -149.9865520584  2.12E-01
   468 Broy./Diag. 0.10E+00    5.4     0.01902464      -149.9290045471  5.75E-02
   469 Broy./Diag. 0.10E+00    5.3     0.00923636      -149.9199874003  9.02E-03
   470 Broy./Diag. 0.10E+00    5.3     0.00490811      -149.9068076129  1.32E-02
   471 Broy./Diag. 0.10E+00    5.4     0.01142954      -149.9084732045 -1.67E-03
   472 Broy./Diag. 0.10E+00    5.3     0.00847834      -149.8972431056  1.12E-02
   473 Broy./Diag. 0.10E+00    5.4     0.00629828      -149.8863613789  1.09E-02
   474 Broy./Diag. 0.10E+00    5.3     0.00476541      -149.8850660030  1.30E-03
   475 Broy./Diag. 0.10E+00    5.4     0.00618503      -149.8849014353  1.65E-04
   476 Broy./Diag. 0.10E+00    5.3     0.00547401      -149.8896032475 -4.70E-03
   477 Broy./Diag. 0.10E+00    5.3     0.00516009      -149.8946104092 -5.01E-03
   478 Broy./Diag. 0.10E+00    5.3     0.00540138      -149.8956097580 -9.99E-04
   479 Broy./Diag. 0.10E+00    5.3     0.00112087      -149.8987256417 -3.12E-03
   480 Broy./Diag. 0.10E+00    5.4     0.00064513      -149.9006075376 -1.88E-03
   481 Broy./Diag. 0.10E+00    5.5     0.00089576      -149.9003366310  2.71E-04
   482 Broy./Diag. 0.10E+00    5.4     0.00097856      -149.9002993463  3.73E-05
   483 Broy./Diag. 0.10E+00    5.3     0.00049720      -149.9008558005 -5.56E-04
   484 Broy./Diag. 0.10E+00    5.3     0.00368185      -149.8996687426  1.19E-03
   485 Broy./Diag. 0.10E+00    5.5     0.00183521      -149.8987496712  9.19E-04
   486 Broy./Diag. 0.10E+00    5.4     0.00051214      -149.8983469564  4.03E-04
   487 Broy./Diag. 0.10E+00    5.4     0.00038890      -149.8985057321 -1.59E-04
   488 Broy./Diag. 0.10E+00    5.3     0.00105902      -149.8991045359 -5.99E-04
   489 Broy./Diag. 0.10E+00    5.4     0.00020724      -149.8995912547 -4.87E-04
   490 Broy./Diag. 0.10E+00    5.4     0.00061236      -149.8994842882  1.07E-04
   491 Broy./Diag. 0.10E+00    5.4     0.00050631      -149.8989803587  5.04E-04
   492 Broy./Diag. 0.10E+00    5.4     0.00035902      -149.8983815541  5.99E-04
   493 Broy./Diag. 0.10E+00    5.3     0.00021138      -149.8980622731  3.19E-04
   494 Broy./Diag. 0.10E+00    5.4     0.00018393      -149.8979513068  1.11E-04
   495 Broy./Diag. 0.10E+00    5.4     0.00008310      -149.8978728224  7.85E-05
   496 Broy./Diag. 0.10E+00    5.4     0.00018137      -149.8979306420 -5.78E-05
   497 Broy./Diag. 0.10E+00    5.4     0.00010194      -149.8981179199 -1.87E-04
   498 Broy./Diag. 0.10E+00    5.4     0.00012928      -149.8983138240 -1.96E-04
   499 Broy./Diag. 0.10E+00    5.3     0.00013051      -149.8983775053 -6.37E-05
   500 Broy./Diag. 0.10E+00    5.4     0.00039329      -149.8982918061  8.57E-05

  Leaving inner SCF loop after reaching   500 steps.


  Electronic density on regular grids:        -12.1414819131        3.8585180869
  Core density on regular grids:               16.0000000000        0.0000000000
  Hard and soft densities (Lebedev):         -100.9993968117      -97.1408815386
  Total Rho_soft + Rho1_hard - Rho1_soft      -15.9999971861
  Total charge density (r-space):               0.0000028139
  Total Rho_soft + Rho0_soft (g-space):         0.0000025073

  Overlap energy of the core charge distribution:               0.00000000200246
  Self energy of the core charge distribution:               -145.82024045573709
  Core Hamiltonian energy:                                    -13.28258736521380
  Hartree energy:                                              26.53818527758230
  Exchange-correlation energy:                                 -5.28157290049363
  Hartree-Fock Exchange energy:                                -4.04120486640393

  GAPW| Exc from hard and soft atomic rho1:                    -7.44241550233193
  GAPW| local Eh = 1 center integrals:                         -0.56845599551093

  Total energy:                                              -149.89829180610656

 *******************************************************************************
 *   ___                                                                       *
 *  /   \                                                                      *
 * [ABORT]                                                                     *
 *  \___/     SCF run NOT converged. To continue the calculation regardless,   *
 *    |             please set the keyword IGNORE_CONVERGENCE_FAILURE.         *
 *  O/|                                                                        *
 * /| |                                                                        *
 * / \                                                            qs_scf.F:611 *
 *******************************************************************************


 ===== Routine Calling Stack ===== 

            3 scf_env_do_scf
            2 qs_energies
            1 CP2K

 *******************************************************************************
 *   ___                                                                       *
 *  /   \                                                                      *
 * [ABORT]                                                                     *
 *  \___/     SCF run NOT converged. To continue the calculation regardless,   *
 *    |             please set the keyword IGNORE_CONVERGENCE_FAILURE.         *
 *  O/|                                                                        *
 * /| |                                                                        *
 * / \                                                            qs_scf.F:611 *
 *******************************************************************************


 ===== Routine Calling Stack ===== 

            3 scf_env_do_scf
            2 qs_energies
            1 CP2K

 *******************************************************************************
 *   ___                                                                       *
 *  /   \                                                                      *
 * [ABORT]                                                                     *
 *  \___/     SCF run NOT converged. To continue the calculation regardless,   *
 *    |             please set the keyword IGNORE_CONVERGENCE_FAILURE.         *
 *  O/|                                                                        *
 * /| |                                                                        *
 * / \                                                            qs_scf.F:611 *
 *******************************************************************************


 ===== Routine Calling Stack ===== 

            3 scf_env_do_scf
            2 qs_energies
            1 CP2K

 *******************************************************************************
 *   ___                                                                       *
 *  /   \                                                                      *
 * [ABORT]                                                                     *
 *  \___/     SCF run NOT converged. To continue the calculation regardless,   *
 *    |             please set the keyword IGNORE_CONVERGENCE_FAILURE.         *
 *  O/|                                                                        *
 * /| |                                                                        *
 * / \                                                            qs_scf.F:611 *
 *******************************************************************************


 ===== Routine Calling Stack ===== 

            3 scf_env_do_scf
            2 qs_energies
            1 CP2K

 *******************************************************************************
 *   ___                                                                       *
 *  /   \                                                                      *
 * [ABORT]                                                                     *
 *  \___/     SCF run NOT converged. To continue the calculation regardless,   *
 *    |             please set the keyword IGNORE_CONVERGENCE_FAILURE.         *
 *  O/|                                                                        *
 * /| |                                                                        *
 * / \                                                            qs_scf.F:611 *
 *******************************************************************************


 ===== Routine Calling Stack ===== 

            3 scf_env_do_scf
            2 qs_energies
            1 CP2K

 *******************************************************************************
 *   ___                                                                       *
 *  /   \                                                                      *
 * [ABORT]                                                                     *
 *  \___/     SCF run NOT converged. To continue the calculation regardless,   *
 *    |             please set the keyword IGNORE_CONVERGENCE_FAILURE.         *
 *  O/|                                                                        *
 * /| |                                                                        *
 * / \                                                            qs_scf.F:611 *
 *******************************************************************************


 ===== Routine Calling Stack ===== 

            3 scf_env_do_scf
            2 qs_energies
            1 CP2K

 *******************************************************************************
 *   ___                                                                       *
 *  /   \                                                                      *
 * [ABORT]                                                                     *
 *  \___/     SCF run NOT converged. To continue the calculation regardless,   *
 *    |             please set the keyword IGNORE_CONVERGENCE_FAILURE.         *
 *  O/|                                                                        *
 * /| |                                                                        *
 * / \                                                            qs_scf.F:611 *
 *******************************************************************************


 ===== Routine Calling Stack ===== 

            3 scf_env_do_scf
            2 qs_energies
            1 CP2K

 *******************************************************************************
 *   ___                                                                       *
 *  /   \                                                                      *
 * [ABORT]                                                                     *
 *  \___/     SCF run NOT converged. To continue the calculation regardless,   *
 *    |             please set the keyword IGNORE_CONVERGENCE_FAILURE.         *
 *  O/|                                                                        *
 * /| |                                                                        *
 * / \                                                            qs_scf.F:611 *
 *******************************************************************************


 ===== Routine Calling Stack ===== 

            3 scf_env_do_scf
            2 qs_energies
            1 CP2K

 *******************************************************************************
 *   ___                                                                       *
 *  /   \                                                                      *
 * [ABORT]                                                                     *
 *  \___/     SCF run NOT converged. To continue the calculation regardless,   *
 *    |             please set the keyword IGNORE_CONVERGENCE_FAILURE.         *
 *  O/|                                                                        *
 * /| |                                                                        *
 * / \                                                            qs_scf.F:611 *
 *******************************************************************************


 ===== Routine Calling Stack ===== 

            3 scf_env_do_scf
            2 qs_energies
            1 CP2K

 *******************************************************************************
 *   ___                                                                       *
 *  /   \                                                                      *
 * [ABORT]                                                                     *
 *  \___/     SCF run NOT converged. To continue the calculation regardless,   *
 *    |             please set the keyword IGNORE_CONVERGENCE_FAILURE.         *
 *  O/|                                                                        *
 * /| |                                                                        *
 * / \                                                            qs_scf.F:611 *
 *******************************************************************************


 ===== Routine Calling Stack ===== 

            3 scf_env_do_scf
            2 qs_energies
            1 CP2K

 *******************************************************************************
 *   ___                                                                       *
 *  /   \                                                                      *
 * [ABORT]                                                                     *
 *  \___/     SCF run NOT converged. To continue the calculation regardless,   *
 *    |             please set the keyword IGNORE_CONVERGENCE_FAILURE.         *
 *  O/|                                                                        *
 * /| |                                                                        *
 * / \                                                            qs_scf.F:611 *
 *******************************************************************************


 ===== Routine Calling Stack ===== 

            3 scf_env_do_scf
            2 qs_energies
            1 CP2K

 *******************************************************************************
 *   ___                                                                       *
 *  /   \                                                                      *
 * [ABORT]                                                                     *
 *  \___/     SCF run NOT converged. To continue the calculation regardless,   *
 *    |             please set the keyword IGNORE_CONVERGENCE_FAILURE.         *
 *  O/|                                                                        *
 * /| |                                                                        *
 * / \                                                            qs_scf.F:611 *
 *******************************************************************************


 ===== Routine Calling Stack ===== 

            3 scf_env_do_scf
            2 qs_energies
            1 CP2K

 *******************************************************************************
 *   ___                                                                       *
 *  /   \                                                                      *
 * [ABORT]                                                                     *
 *  \___/     SCF run NOT converged. To continue the calculation regardless,   *
 *    |             please set the keyword IGNORE_CONVERGENCE_FAILURE.         *
 *  O/|                                                                        *
 * /| |                                                                        *
 * / \                                                            qs_scf.F:611 *
 *******************************************************************************


 ===== Routine Calling Stack ===== 

            3 scf_env_do_scf
            2 qs_energies
            1 CP2K
