 DBCSR| CPU Multiplication driver                                           BLAS (U)
 DBCSR| Multrec recursion limit                                              512 (U)
 DBCSR| Multiplication stack size                                           1000 (D)
 DBCSR| Maximum elements for images                                    UNLIMITED (U)
 DBCSR| Multiplicative factor virtual images                                   1 (U)
 DBCSR| Use multiplication densification                                       T (D)
 DBCSR| Multiplication size stacks                                             3 (U)
 DBCSR| Use memory pool for CPU allocation                                     F (U)
 DBCSR| Number of 3D layers                                               SINGLE (U)
 DBCSR| Use MPI memory allocation                                              F (U)
 DBCSR| Use RMA algorithm                                                      F (U)
 DBCSR| Use Communication thread                                               T (U)
 DBCSR| Communication thread load                                             75 (D)
 DBCSR| MPI: My process id                                                     0
 DBCSR| MPI: Number of processes                                              24
 DBCSR| OMP: Current number of threads                                         4
 DBCSR| OMP: Max number of threads                                             4
 DBCSR| Split modifier for TAS multiplication algorithm                  1.0E+00 (U)


  **** **** ******  **  PROGRAM STARTED AT               2025-03-09 12:56:45.061
 ***** ** ***  *** **   PROGRAM STARTED ON                          i03r08c06s06
 **    ****   ******    PROGRAM STARTED BY                               di38fab
 ***** **    ** ** **   PROGRAM PROCESS ID                               3786613
  **** **  *******  **  PROGRAM STARTED IN /hppfs/scratch/04/di38fab/05_MOL/W4-1
                                           1+ALK/c2/aug-cc-pVTZ

 CP2K| version string:                 CP2K version 2025.1 (Development Version)
 CP2K| source code revision number:                                  git:47877ba
 CP2K| cp2kflags: omp libint fftw3 libxc parallel scalapack max_contr=4         
 CP2K| is freely available from                            https://www.cp2k.org/
 CP2K| Program compiled at                          Thu Feb 20 16:00:34 CET 2025
 CP2K| Program compiled on                                               login04
 CP2K| Program compiled for                                        Supermuc-foss
 CP2K| Data directory path          /hppfs/work/pn36zo/di38fab/newcp2k/cp2k/data
 CP2K| Input file name                                                    GW.inp

 GLOBAL| Force Environment number                                              1
 GLOBAL| Basis set file name            /hppfs/scratch/04/di38fab/04_TMD/BASIS_A
 GLOBAL| Potential file name            /hppfs/work/pn36zo/di38fab/cp2k/data/ALL
 GLOBAL| MM Potential file name                                     MM_POTENTIAL
 GLOBAL| Coordinate file name                                      __STD_INPUT__
 GLOBAL| Method name                                                        CP2K
 GLOBAL| Project name                                                       MoS2
 GLOBAL| Run type                                                         ENERGY
 GLOBAL| FFT library                                                       FFTW3
 GLOBAL| Diagonalization library                                       ScaLAPACK
 GLOBAL| DGEMM library                                                      BLAS
 GLOBAL| Orthonormality check for eigenvectors                          DISABLED
 GLOBAL| Matrix multiplication library                                 ScaLAPACK
 GLOBAL| All-to-all communication in single precision                          F
 GLOBAL| FFTs using library dependent lengths                                  F
 GLOBAL| Grid backend                                                       AUTO
 GLOBAL| Global print level                                               MEDIUM
 GLOBAL| MPI I/O enabled                                                       T
 GLOBAL| Total number of message passing processes                            24
 GLOBAL| Number of threads for this process                                    4
 GLOBAL| This output is from process                                           0
 GLOBAL| OpenMP stack size per thread (OMP_STACKSIZE)                    default
 GLOBAL| CPU model name             Intel(R) Xeon(R) Platinum 8174 CPU @ 3.10GHz

 MEMORY| system memory details [Kb]
 MEMORY|                        rank 0           min           max       average
 MEMORY| MemTotal             98436708      98436664      98436708      98436686
 MEMORY| MemFree              83920268      83920268      84026672      83973470
 MEMORY| Buffers                     0             0             0             0
 MEMORY| Cached                2429852       2429852       2430180       2430016
 MEMORY| Slab                  1248036       1241748       1248036       1244892
 MEMORY| SReclaimable           277672        269108        277672        273390
 MEMORY| MemLikelyFree        86627792      86627792      86725960      86676876


 *** Fundamental physical constants (SI units) ***

 *** Literature: B. J. Mohr and B. N. Taylor,
 ***             CODATA recommended values of the fundamental physical
 ***             constants: 2006, Web Version 5.1
 ***             http://physics.nist.gov/constants

 Speed of light in vacuum [m/s]                             2.99792458000000E+08
 Magnetic constant or permeability of vacuum [N/A**2]       1.25663706143592E-06
 Electric constant or permittivity of vacuum [F/m]          8.85418781762039E-12
 Planck constant (h) [J*s]                                  6.62606896000000E-34
 Planck constant (h-bar) [J*s]                              1.05457162825177E-34
 Elementary charge [C]                                      1.60217648700000E-19
 Electron mass [kg]                                         9.10938215000000E-31
 Electron g factor [ ]                                     -2.00231930436220E+00
 Proton mass [kg]                                           1.67262163700000E-27
 Fine-structure constant                                    7.29735253760000E-03
 Rydberg constant [1/m]                                     1.09737315685270E+07
 Avogadro constant [1/mol]                                  6.02214179000000E+23
 Boltzmann constant [J/K]                                   1.38065040000000E-23
 Atomic mass unit [kg]                                      1.66053878200000E-27
 Bohr radius [m]                                            5.29177208590000E-11

 *** Conversion factors ***

 [u] -> [a.u.]                                              1.82288848426455E+03
 [Angstrom] -> [Bohr] = [a.u.]                              1.88972613288564E+00
 [a.u.] = [Bohr] -> [Angstrom]                              5.29177208590000E-01
 [a.u.] -> [s]                                              2.41888432650478E-17
 [a.u.] -> [fs]                                             2.41888432650478E-02
 [a.u.] -> [J]                                              4.35974393937059E-18
 [a.u.] -> [N]                                              8.23872205491840E-08
 [a.u.] -> [K]                                              3.15774647902944E+05
 [a.u.] -> [kJ/mol]                                         2.62549961709828E+03
 [a.u.] -> [kcal/mol]                                       6.27509468713739E+02
 [a.u.] -> [Pa]                                             2.94210107994716E+13
 [a.u.] -> [bar]                                            2.94210107994716E+08
 [a.u.] -> [atm]                                            2.90362800883016E+08
 [a.u.] -> [eV]                                             2.72113838565563E+01
 [a.u.] -> [Hz]                                             6.57968392072181E+15
 [a.u.] -> [1/cm] (wave numbers)                            2.19474631370540E+05
 [a.u./Bohr**2] -> [1/cm]                                   5.14048714338585E+03
 

 CELL_TOP| Volume [angstrom^3]:                                     27000.000000
 CELL_TOP| Vector a [angstrom    30.000     0.000     0.000   |a| =    30.000000
 CELL_TOP| Vector b [angstrom     0.000    30.000     0.000   |b| =    30.000000
 CELL_TOP| Vector c [angstrom     0.000     0.000    30.000   |c| =    30.000000
 CELL_TOP| Angle (b,c), alpha [degree]:                                90.000000
 CELL_TOP| Angle (a,c), beta  [degree]:                                90.000000
 CELL_TOP| Angle (a,b), gamma [degree]:                                90.000000
 CELL_TOP| Numerically orthorhombic:                                         YES
 CELL_TOP| Periodicity                                                      NONE

 GENERATE|  Preliminary Number of Bonds generated:                             0
 GENERATE|  Achieved consistency in connectivity generation.

 CELL| Volume [angstrom^3]:                                         27000.000000
 CELL| Vector a [angstrom]:      30.000     0.000     0.000   |a| =    30.000000
 CELL| Vector b [angstrom]:       0.000    30.000     0.000   |b| =    30.000000
 CELL| Vector c [angstrom]:       0.000     0.000    30.000   |c| =    30.000000
 CELL| Angle (b,c), alpha [degree]:                                    90.000000
 CELL| Angle (a,c), beta  [degree]:                                    90.000000
 CELL| Angle (a,b), gamma [degree]:                                    90.000000
 CELL| Numerically orthorhombic:                                             YES
 CELL| Periodicity                                                          NONE

 CELL_REF| Volume [angstrom^3]:                                     27000.000000
 CELL_REF| Vector a [angstrom    30.000     0.000     0.000   |a| =    30.000000
 CELL_REF| Vector b [angstrom     0.000    30.000     0.000   |b| =    30.000000
 CELL_REF| Vector c [angstrom     0.000     0.000    30.000   |c| =    30.000000
 CELL_REF| Angle (b,c), alpha [degree]:                                90.000000
 CELL_REF| Angle (a,c), beta  [degree]:                                90.000000
 CELL_REF| Angle (a,b), gamma [degree]:                                90.000000
 CELL_REF| Numerically orthorhombic:                                         YES
 CELL_REF| Periodicity                                                      NONE

 *******************************************************************************
 *******************************************************************************
 **                                                                           **
 **     #####                         ##              ##                      **
 **    ##   ##            ##          ##              ##                      **
 **   ##     ##                       ##            ######                    **
 **   ##     ##  ##   ##  ##   #####  ##  ##   ####   ##    #####    #####    **
 **   ##     ##  ##   ##  ##  ##      ## ##   ##      ##   ##   ##  ##   ##   **
 **   ##  ## ##  ##   ##  ##  ##      ####     ###    ##   ######   ######    **
 **    ##  ###   ##   ##  ##  ##      ## ##      ##   ##   ##       ##        **
 **     #######   #####   ##   #####  ##  ##  ####    ##    #####   ##        **
 **           ##                                                    ##        **
 **                                                                           **
 **                                                ... make the atoms dance   **
 **                                                                           **
 **            Copyright (C) by CP2K developers group (2000-2025)             **
 **                      J. Chem. Phys. 152, 194103 (2020)                    **
 **                                                                           **
 *******************************************************************************

 DFT| Spin restricted Kohn-Sham (RKS) calculation                            RKS
 DFT| Multiplicity                                                             1
 DFT| Number of spin states                                                    1
 DFT| Charge                                                                   0
 DFT| Self-interaction correction (SIC)                                       NO
 DFT| Cutoffs: density                                              1.000000E-10
 DFT|          gradient                                             1.000000E-10
 DFT|          tau                                                  1.000000E-10
 DFT|          cutoff_smoothing_range                               0.000000E+00
 DFT| XC density smoothing                                                  NONE
 DFT| XC derivatives                                                          PW

 FUNCTIONAL| PBE:
 FUNCTIONAL| J.P.Perdew, K.Burke, M.Ernzerhof, Phys. Rev. Letter, vol. 77, n 18,
 FUNCTIONAL|  pp. 3865-3868, (1996)sx=0.750sc=1.000{spin unpolarized}           


 QS| Method:                                                                GAPW
 QS| Density plane wave grid type                        NON-SPHERICAL FULLSPACE
 QS| Number of grid levels:                                                    4
 QS| Density cutoff [a.u.]:                                                250.0
 QS| Multi grid cutoff [a.u.]: 1) grid level                               250.0
 QS|                           2) grid level                                83.3
 QS|                           3) grid level                                27.8
 QS|                           4) grid level                                 9.3
 QS| Grid level progression factor:                                          3.0
 QS| Relative density cutoff [a.u.]:                                        50.0
 QS| Interaction thresholds: eps_pgf_orb:                                1.0E-12
 QS|                         eps_filter_matrix:                          0.0E+00
 QS|                         eps_core_charge:                            1.0E-14
 QS|                         eps_rho_gspace:                             1.0E-12
 QS|                         eps_rho_rspace:                             1.0E-12
 QS|                         eps_gvg_rspace:                             1.0E-06
 QS|                         eps_ppl:                                    1.0E-02
 QS|                         eps_ppnl:                                   1.0E-08
 QS| GAPW|      One center basis from orbital basis primitives
 QS| GAPW|                   eps_fit:                                    1.0E-04
 QS| GAPW|                   eps_iso:                                    1.0E-12
 QS| GAPW|                   eps_svd:                                    1.0E-08
 QS| GAPW|                   eps_cpc:                                    1.0E-12
 QS| GAPW|   atom-r-grid: quadrature:                                     GC_LOG
 QS| GAPW|      atom-s-grid:  max l :                                          6
 QS| GAPW|      max_l_rho0 :                                                   2


 ATOMIC KIND INFORMATION

  1. Atomic kind: C                                     Number of atoms:       2

     Orbital Basis Set                                               aug-cc-pVTZ

       Number of orbital shell sets:                                           8
       Number of orbital shells:                                              14
       Number of primitive Cartesian functions:                               22
       Number of Cartesian basis functions:                                   55
       Number of spherical basis functions:                                   46
       Norm type:                                                              2

       Normalised Cartesian orbitals:

                        Set   Shell   Orbital            Exponent    Coefficient

                          1       1    1px               0.035690       0.022112
                          1       1    1py               0.035690       0.022112
                          1       1    1pz               0.035690       0.022112

                          2       1    1s                0.044020       0.068493

                          3       1    1dx2              0.100000       0.029269
                          3       1    1dxy              0.100000       0.050696
                          3       1    1dxz              0.100000       0.050696
                          3       1    1dy2              0.100000       0.029269
                          3       1    1dyz              0.100000       0.050696
                          3       1    1dz2              0.100000       0.029269

                          4       1    1px              18.710000       0.000000
                                                         4.133000       0.000000
                                                         1.200000       0.000000
                                                         0.382700       0.429055
                                                         0.120900       0.000000
                          4       1    1py              18.710000       0.000000
                                                         4.133000       0.000000
                                                         1.200000       0.000000
                                                         0.382700       0.429055
                                                         0.120900       0.000000
                          4       1    1pz              18.710000       0.000000
                                                         4.133000       0.000000
                                                         1.200000       0.000000
                                                         0.382700       0.429055
                                                         0.120900       0.000000

                          4       2    2px              18.710000       0.778253
                                                         4.133000       0.729662
                                                         1.200000       0.519563
                                                         0.382700       0.214960
                                                         0.120900       0.034896
                          4       2    2py              18.710000       0.778253
                                                         4.133000       0.729662
                                                         1.200000       0.519563
                                                         0.382700       0.214960
                                                         0.120900       0.034896
                          4       2    2pz              18.710000       0.778253
                                                         4.133000       0.729662
                                                         1.200000       0.519563
                                                         0.382700       0.214960
                                                         0.120900       0.034896

                          4       3    3px              18.710000       0.000000
                                                         4.133000       0.000000
                                                         1.200000       0.000000
                                                         0.382700       0.000000
                                                         0.120900       0.101619
                          4       3    3py              18.710000       0.000000
                                                         4.133000       0.000000
                                                         1.200000       0.000000
                                                         0.382700       0.000000
                                                         0.120900       0.101619
                          4       3    3pz              18.710000       0.000000
                                                         4.133000       0.000000
                                                         1.200000       0.000000
                                                         0.382700       0.000000
                                                         0.120900       0.101619

                          5       1    1s             8236.000000       0.327184
                                                      1235.000000       0.609945
                                                       280.800000       1.030914
                                                        79.270000       1.549802
                                                        25.590000       1.904111
                                                         8.997000       1.608326
                                                         3.319000       0.606601
                                                         0.905900       0.026060
                                                         0.364300      -0.003002
                                                         0.128500       0.000365

                          5       2    2s             8236.000000       0.000000
                                                      1235.000000       0.000000
                                                       280.800000       0.000000
                                                        79.270000       0.000000
                                                        25.590000       0.000000
                                                         8.997000       0.000000
                                                         3.319000       0.000000
                                                         0.905900       0.661790
                                                         0.364300       0.000000
                                                         0.128500       0.000000

                          5       3    3s             8236.000000      -0.069627
                                                      1235.000000      -0.130363
                                                       280.800000      -0.221954
                                                        79.270000      -0.343330
                                                        25.590000      -0.452153
                                                         8.997000      -0.469816
                                                         3.319000      -0.298547
                                                         0.905900       0.092903
                                                         0.364300       0.200079
                                                         0.128500       0.060480

                          5       4    4s             8236.000000       0.000000
                                                      1235.000000       0.000000
                                                       280.800000       0.000000
                                                        79.270000       0.000000
                                                        25.590000       0.000000
                                                         8.997000       0.000000
                                                         3.319000       0.000000
                                                         0.905900       0.000000
                                                         0.364300       0.000000
                                                         0.128500       0.152963

                          6       1    1fx3              0.268000       0.076078
                          6       1    1fx2y             0.268000       0.170115
                          6       1    1fx2z             0.268000       0.170115
                          6       1    1fxy2             0.268000       0.170115
                          6       1    1fxyz             0.268000       0.294648
                          6       1    1fxz2             0.268000       0.170115
                          6       1    1fy3              0.268000       0.076078
                          6       1    1fy2z             0.268000       0.170115
                          6       1    1fyz2             0.268000       0.170115
                          6       1    1fz3              0.268000       0.076078

                          7       1    1dx2              1.097000       1.935401
                                                         0.318000       0.000000
                          7       1    1dxy              1.097000       3.352214
                                                         0.318000       0.000000
                          7       1    1dxz              1.097000       3.352214
                                                         0.318000       0.000000
                          7       1    1dy2              1.097000       1.935401
                                                         0.318000       0.000000
                          7       1    1dyz              1.097000       3.352214
                                                         0.318000       0.000000
                          7       1    1dz2              1.097000       1.935401
                                                         0.318000       0.000000

                          7       2    2dx2              1.097000       0.000000
                                                         0.318000       0.221644
                          7       2    2dxy              1.097000       0.000000
                                                         0.318000       0.383899
                          7       2    2dxz              1.097000       0.000000
                                                         0.318000       0.383899
                          7       2    2dy2              1.097000       0.000000
                                                         0.318000       0.221644
                          7       2    2dyz              1.097000       0.000000
                                                         0.318000       0.383899
                          7       2    2dz2              1.097000       0.000000
                                                         0.318000       0.221644

                          8       1    1fx3              0.761000       0.796288
                          8       1    1fx2y             0.761000       1.780553
                          8       1    1fx2z             0.761000       1.780553
                          8       1    1fxy2             0.761000       1.780553
                          8       1    1fxyz             0.761000       3.084008
                          8       1    1fxz2             0.761000       1.780553
                          8       1    1fy3              0.761000       0.796288
                          8       1    1fy2z             0.761000       1.780553
                          8       1    1fyz2             0.761000       1.780553
                          8       1    1fz3              0.761000       0.796288

     RI Auxiliary Basis Set                                    aug-cc-pVTZ-OPTRI

       Number of orbital shell sets:                                          18
       Number of orbital shells:                                              18
       Number of primitive Cartesian functions:                               18
       Number of Cartesian basis functions:                                  103
       Number of spherical basis functions:                                   78
       Norm type:                                                              2

       Normalised Cartesian orbitals:

                        Set   Shell   Orbital            Exponent    Coefficient

                          1       1    1px               0.053629       0.036787
                          1       1    1py               0.053629       0.036787
                          1       1    1pz               0.053629       0.036787

                          2       1    1s                0.071296       0.098335

                          3       1    1dx2              0.149738       0.059325
                          3       1    1dxy              0.149738       0.102755
                          3       1    1dxz              0.149738       0.102755
                          3       1    1dy2              0.149738       0.059325
                          3       1    1dyz              0.149738       0.102755
                          3       1    1dz2              0.149738       0.059325

                          4       1    1px               0.180551       0.167761
                          4       1    1py               0.180551       0.167761
                          4       1    1pz               0.180551       0.167761

                          5       1    1s                0.347160       0.322335

                          6       1    1dx2              0.499205       0.487975
                          6       1    1dxy              0.499205       0.845198
                          6       1    1dxz              0.499205       0.845198
                          6       1    1dy2              0.499205       0.487975
                          6       1    1dyz              0.499205       0.845198
                          6       1    1dz2              0.499205       0.487975

                          7       1    1fx3              0.506969       0.319273
                          7       1    1fx2y             0.506969       0.713917
                          7       1    1fx2z             0.506969       0.713917
                          7       1    1fxy2             0.506969       0.713917
                          7       1    1fxyz             0.506969       1.236540
                          7       1    1fxz2             0.506969       0.713917
                          7       1    1fy3              0.506969       0.319273
                          7       1    1fy2z             0.506969       0.713917
                          7       1    1fyz2             0.506969       0.713917
                          7       1    1fz3              0.506969       0.319273

                          8       1    1px               0.571981       0.709034
                          8       1    1py               0.571981       0.709034
                          8       1    1pz               0.571981       0.709034

                          9       1    1gx4              0.583231       0.252637
                          9       1    1gx3y             0.583231       0.668415
                          9       1    1gx3z             0.583231       0.668415
                          9       1    1gx2y2            0.583231       0.862920
                          9       1    1gx2yz            0.583231       1.494621
                          9       1    1gx2z2            0.583231       0.862920
                          9       1    1gxy3             0.583231       0.668415
                          9       1    1gxy2z            0.583231       1.494621
                          9       1    1gxyz2            0.583231       1.494621
                          9       1    1gxz3             0.583231       0.668415
                          9       1    1gy4              0.583231       0.252637
                          9       1    1gy3z             0.583231       0.668415
                          9       1    1gy2z2            0.583231       0.862920
                          9       1    1gyz3             0.583231       0.668415
                          9       1    1gz4              0.583231       0.252637

                         10       1    1px               1.079380       1.568224
                         10       1    1py               1.079380       1.568224
                         10       1    1pz               1.079380       1.568224

                         11       1    1s                1.350899       0.893053

                         12       1    1fx3              1.360408       2.942457
                         12       1    1fx2y             1.360408       6.579533
                         12       1    1fx2z             1.360408       6.579533
                         12       1    1fxy2             1.360408       6.579533
                         12       1    1fxyz             1.360408      11.396086
                         12       1    1fxz2             1.360408       6.579533
                         12       1    1fy3              1.360408       2.942457
                         12       1    1fy2z             1.360408       6.579533
                         12       1    1fyz2             1.360408       6.579533
                         12       1    1fz3              1.360408       2.942457

                         13       1    1gx4              1.603084       4.074414
                         13       1    1gx3y             1.603084      10.779887
                         13       1    1gx3z             1.603084      10.779887
                         13       1    1gx2y2            1.603084      13.916774
                         13       1    1gx2yz            1.603084      24.104560
                         13       1    1gx2z2            1.603084      13.916774
                         13       1    1gxy3             1.603084      10.779887
                         13       1    1gxy2z            1.603084      24.104560
                         13       1    1gxyz2            1.603084      24.104560
                         13       1    1gxz3             1.603084      10.779887
                         13       1    1gy4              1.603084       4.074414
                         13       1    1gy3z             1.603084      10.779887
                         13       1    1gy2z2            1.603084      13.916774
                         13       1    1gyz3             1.603084      10.779887
                         13       1    1gz4              1.603084       4.074414

                         14       1    1dx2              2.042078       5.741641
                         14       1    1dxy              2.042078       9.944814
                         14       1    1dxz              2.042078       9.944814
                         14       1    1dy2              2.042078       5.741641
                         14       1    1dyz              2.042078       9.944814
                         14       1    1dz2              2.042078       5.741641

                         15       1    1px               3.363437       6.492608
                         15       1    1py               3.363437       6.492608
                         15       1    1pz               3.363437       6.492608

                         16       1    1fx3              3.489720      24.503790
                         16       1    1fx2y             3.489720      54.792140
                         16       1    1fx2z             3.489720      54.792140
                         16       1    1fxy2             3.489720      54.792140
                         16       1    1fxyz             3.489720      94.902770
                         16       1    1fxz2             3.489720      54.792140
                         16       1    1fy3              3.489720      24.503790
                         16       1    1fy2z             3.489720      54.792140
                         16       1    1fyz2             3.489720      54.792140
                         16       1    1fz3              3.489720      24.503790

                         17       1    1s                3.964205       2.002291

                         18       1    1dx2              4.948435      27.022668
                         18       1    1dxy              4.948435      46.804634
                         18       1    1dxz              4.948435      46.804634
                         18       1    1dy2              4.948435      27.022668
                         18       1    1dyz              4.948435      46.804634
                         18       1    1dz2              4.948435      27.022668

       Atomic covalent radius [Angstrom]:                                  0.770

       Atomic van der Waals radius [Angstrom]:                             1.700

     The atoms of this atomic kind are PAW atoms (GAPW):
       Hard Gaussian function radius:                                      1.512
       Rho0 radius:                                                        1.512
       Maximum GTO radius used for PAW projector construction:            24.566

     GAPW Soft Basis Set                                        aug-cc-pVTZ_soft

       Number of orbital shell sets:                                           8
       Number of orbital shells:                                              14
       Number of primitive Cartesian functions:                               15
       Number of Cartesian basis functions:                                   55
       Number of spherical basis functions:                                   46
       Norm type:                                                              2

       Normalised Cartesian orbitals:

                        Set   Shell   Orbital            Exponent    Coefficient

                          1       1    1px               0.035690       0.022112
                          1       1    1py               0.035690       0.022112
                          1       1    1pz               0.035690       0.022112

                          2       1    1s                0.044020       0.068493

                          3       1    1dx2              0.100000       0.029269
                          3       1    1dxy              0.100000       0.050696
                          3       1    1dxz              0.100000       0.050696
                          3       1    1dy2              0.100000       0.029269
                          3       1    1dyz              0.100000       0.050696
                          3       1    1dz2              0.100000       0.029269

                          4       1    1px               4.133000       0.000000
                                                         1.200000       0.000000
                                                         0.382700       0.429055
                                                         0.120900       0.000000
                          4       1    1py               4.133000       0.000000
                                                         1.200000       0.000000
                                                         0.382700       0.429055
                                                         0.120900       0.000000
                          4       1    1pz               4.133000       0.000000
                                                         1.200000       0.000000
                                                         0.382700       0.429055
                                                         0.120900       0.000000

                          4       2    2px               4.133000       0.729662
                                                         1.200000       0.519563
                                                         0.382700       0.214960
                                                         0.120900       0.034896
                          4       2    2py               4.133000       0.729662
                                                         1.200000       0.519563
                                                         0.382700       0.214960
                                                         0.120900       0.034896
                          4       2    2pz               4.133000       0.729662
                                                         1.200000       0.519563
                                                         0.382700       0.214960
                                                         0.120900       0.034896

                          4       3    3px               4.133000       0.000000
                                                         1.200000       0.000000
                                                         0.382700       0.000000
                                                         0.120900       0.101619
                          4       3    3py               4.133000       0.000000
                                                         1.200000       0.000000
                                                         0.382700       0.000000
                                                         0.120900       0.101619
                          4       3    3pz               4.133000       0.000000
                                                         1.200000       0.000000
                                                         0.382700       0.000000
                                                         0.120900       0.101619

                          5       1    1s                3.319000       0.606601
                                                         0.905900       0.026060
                                                         0.364300      -0.003002
                                                         0.128500       0.000365

                          5       2    2s                3.319000       0.000000
                                                         0.905900       0.661790
                                                         0.364300       0.000000
                                                         0.128500       0.000000

                          5       3    3s                3.319000      -0.298547
                                                         0.905900       0.092903
                                                         0.364300       0.200079
                                                         0.128500       0.060480

                          5       4    4s                3.319000       0.000000
                                                         0.905900       0.000000
                                                         0.364300       0.000000
                                                         0.128500       0.152963

                          6       1    1fx3              0.268000       0.076078
                          6       1    1fx2y             0.268000       0.170115
                          6       1    1fx2z             0.268000       0.170115
                          6       1    1fxy2             0.268000       0.170115
                          6       1    1fxyz             0.268000       0.294648
                          6       1    1fxz2             0.268000       0.170115
                          6       1    1fy3              0.268000       0.076078
                          6       1    1fy2z             0.268000       0.170115
                          6       1    1fyz2             0.268000       0.170115
                          6       1    1fz3              0.268000       0.076078

                          7       1    1dx2              1.097000       1.935401
                                                         0.318000       0.000000
                          7       1    1dxy              1.097000       3.352214
                                                         0.318000       0.000000
                          7       1    1dxz              1.097000       3.352214
                                                         0.318000       0.000000
                          7       1    1dy2              1.097000       1.935401
                                                         0.318000       0.000000
                          7       1    1dyz              1.097000       3.352214
                                                         0.318000       0.000000
                          7       1    1dz2              1.097000       1.935401
                                                         0.318000       0.000000

                          7       2    2dx2              1.097000       0.000000
                                                         0.318000       0.221644
                          7       2    2dxy              1.097000       0.000000
                                                         0.318000       0.383899
                          7       2    2dxz              1.097000       0.000000
                                                         0.318000       0.383899
                          7       2    2dy2              1.097000       0.000000
                                                         0.318000       0.221644
                          7       2    2dyz              1.097000       0.000000
                                                         0.318000       0.383899
                          7       2    2dz2              1.097000       0.000000
                                                         0.318000       0.221644

                          8       1    1fx3              0.761000       0.796288
                          8       1    1fx2y             0.761000       1.780553
                          8       1    1fx2z             0.761000       1.780553
                          8       1    1fxy2             0.761000       1.780553
                          8       1    1fxyz             0.761000       3.084008
                          8       1    1fxz2             0.761000       1.780553
                          8       1    1fy3              0.761000       0.796288
                          8       1    1fy2z             0.761000       1.780553
                          8       1    1fyz2             0.761000       1.780553
                          8       1    1fz3              0.761000       0.796288

     AE Potential information for                                            ALL

       Description:                                       All-electron potential
                                          Krack, Parrinello, PCCP 2, 2105 (2000)

       Gaussian exponent of the core charge distribution:               4.109048
       Electronic configuration (s p d ...):                           4   2   0


 MOLECULE KIND INFORMATION


 All atoms are their own molecule, skipping detailed information


 TOTAL NUMBERS AND MAXIMUM NUMBERS

  Total number of            - Atomic kinds:                                   1
                             - Atoms:                                          2
                             - Shell sets:                                    16
                             - Shells:                                        28
                             - Primitive Cartesian functions:                 44
                             - Cartesian basis functions:                    110
                             - Spherical basis functions:                     92

  Maximum angular momentum of the orbital basis functions:                     3


 MODULE QUICKSTEP: ATOMIC COORDINATES IN ANGSTROM

   Atom Kind Element         X             Y             Z       Z(eff)     Mass
      1    1 C     6     15.620000     15.000000     15.000000   6.0000  12.0107
      2    1 C     6     14.380000     15.000000     15.000000   6.0000  12.0107



 SCF PARAMETERS         Density guess:                                    ATOMIC
                        --------------------------------------------------------
                        max_scf:                                             500
                        max_scf_history:                                       0
                        max_diis:                                              4
                        --------------------------------------------------------
                        eps_scf:                                        1.00E-06
                        eps_scf_history:                                0.00E+00
                        eps_diis:                                       1.00E-01
                        eps_eigval:                                     1.00E-05
                        --------------------------------------------------------
                        level_shift [a.u.]:                             0.000000
                        added MOs                                        86    0
                        --------------------------------------------------------
                        Mixing method:                            BROYDEN_MIXING
                                                charge density mixing in g-space
                        --------------------------------------------------------
                        No outer SCF

 PW_GRID| Information for grid number                                          1
 PW_GRID| Grid distributed over                                    24 processors
 PW_GRID| Real space group dimensions                                    24    1
 PW_GRID| the grid is blocked:                                                NO
 PW_GRID| Cutoff [a.u.]                                                    250.0
 PW_GRID| spherical cutoff:                                                   NO
 PW_GRID|   Bounds   1           -202     202                Points:         405
 PW_GRID|   Bounds   2           -202     202                Points:         405
 PW_GRID|   Bounds   3           -202     202                Points:         405
 PW_GRID| Volume element (a.u.^3)  0.2743E-02     Volume (a.u.^3)    182205.0337
 PW_GRID| Grid span                                                    FULLSPACE
 PW_GRID|   Distribution                         Average         Max         Min
 PW_GRID|   G-Vectors                          2767921.9     2768175     2767770
 PW_GRID|   G-Rays                                6834.4        6835        6834
 PW_GRID|   Real Space Points                  2767921.9     2788425     2624400

 PW_GRID| Information for grid number                                          2
 PW_GRID| Number of the reference grid                                         1
 PW_GRID| Grid distributed over                                    24 processors
 PW_GRID| Real space group dimensions                                    24    1
 PW_GRID| the grid is blocked:                                                NO
 PW_GRID| Cutoff [a.u.]                                                     83.3
 PW_GRID| spherical cutoff:                                                   NO
 PW_GRID|   Bounds   1           -120     119                Points:         240
 PW_GRID|   Bounds   2           -120     119                Points:         240
 PW_GRID|   Bounds   3           -120     119                Points:         240
 PW_GRID| Volume element (a.u.^3)  0.1318E-01     Volume (a.u.^3)    182205.0337
 PW_GRID| Grid span                                                    FULLSPACE
 PW_GRID|   Distribution                         Average         Max         Min
 PW_GRID|   G-Vectors                           576000.0      576240      575760
 PW_GRID|   G-Rays                                2400.0        2401        2399
 PW_GRID|   Real Space Points                   576000.0      576000      576000

 PW_GRID| Information for grid number                                          3
 PW_GRID| Number of the reference grid                                         1
 PW_GRID| Grid distributed over                                    24 processors
 PW_GRID| Real space group dimensions                                    24    1
 PW_GRID| the grid is blocked:                                                NO
 PW_GRID| Cutoff [a.u.]                                                     27.8
 PW_GRID| spherical cutoff:                                                   NO
 PW_GRID|   Bounds   1            -67      67                Points:         135
 PW_GRID|   Bounds   2            -67      67                Points:         135
 PW_GRID|   Bounds   3            -67      67                Points:         135
 PW_GRID| Volume element (a.u.^3)  0.7406E-01     Volume (a.u.^3)    182205.0337
 PW_GRID| Grid span                                                    FULLSPACE
 PW_GRID|   Distribution                         Average         Max         Min
 PW_GRID|   G-Vectors                           102515.6      102735      102330
 PW_GRID|   G-Rays                                 759.4         761         758
 PW_GRID|   Real Space Points                   102515.6      109350       91125

 PW_GRID| Information for grid number                                          4
 PW_GRID| Number of the reference grid                                         1
 PW_GRID| Grid distributed over                                    24 processors
 PW_GRID| Real space group dimensions                                    24    1
 PW_GRID| the grid is blocked:                                                NO
 PW_GRID| Cutoff [a.u.]                                                      9.3
 PW_GRID| spherical cutoff:                                                   NO
 PW_GRID|   Bounds   1            -40      39                Points:          80
 PW_GRID|   Bounds   2            -40      39                Points:          80
 PW_GRID|   Bounds   3            -40      39                Points:          80
 PW_GRID| Volume element (a.u.^3)  0.3559         Volume (a.u.^3)    182205.0337
 PW_GRID| Grid span                                                    FULLSPACE
 PW_GRID|   Distribution                         Average         Max         Min
 PW_GRID|   G-Vectors                            21333.3       21360       21280
 PW_GRID|   G-Rays                                 266.7         267         266
 PW_GRID|   Real Space Points                    21333.3       25600       19200

 POISSON| Solver                                                         WAVELET
 POISSON| Wavelet| Scaling function                                           40
 POISSON| Periodicity                                                       NONE

 RS_GRID| Information for grid number                                          1
 RS_GRID|   Bounds   1           -202     202                Points:         405
 RS_GRID|   Bounds   2           -202     202                Points:         405
 RS_GRID|   Bounds   3           -202     202                Points:         405
 RS_GRID| Real space distribution over                                  4 groups
 RS_GRID| Real space distribution along direction                              2
 RS_GRID| Border size                                                         34
 RS_GRID| Real space distribution over                                  6 groups
 RS_GRID| Real space distribution along direction                              3
 RS_GRID| Border size                                                         34
 RS_GRID|   Distribution                         Average         Max         Min
 RS_GRID|   Planes                                 169.2         170         169
 RS_GRID|   Distribution                         Average         Max         Min
 RS_GRID|   Planes                                 135.5         136         135

 RS_GRID| Information for grid number                                          2
 RS_GRID|   Bounds   1           -120     119                Points:         240
 RS_GRID|   Bounds   2           -120     119                Points:         240
 RS_GRID|   Bounds   3           -120     119                Points:         240
 RS_GRID| Real space distribution over                                  4 groups
 RS_GRID| Real space distribution along direction                              2
 RS_GRID| Border size                                                         37
 RS_GRID| Real space distribution over                                  6 groups
 RS_GRID| Real space distribution along direction                              3
 RS_GRID| Border size                                                         37
 RS_GRID|   Distribution                         Average         Max         Min
 RS_GRID|   Planes                                 134.0         134         134
 RS_GRID|   Distribution                         Average         Max         Min
 RS_GRID|   Planes                                 114.0         114         114

 RS_GRID| Information for grid number                                          3
 RS_GRID|   Bounds   1            -67      67                Points:         135
 RS_GRID|   Bounds   2            -67      67                Points:         135
 RS_GRID|   Bounds   3            -67      67                Points:         135
 RS_GRID| Real space fully replicated
 RS_GRID| Group size                                                           1

 RS_GRID| Information for grid number                                          4
 RS_GRID|   Bounds   1            -40      39                Points:          80
 RS_GRID|   Bounds   2            -40      39                Points:          80
 RS_GRID|   Bounds   3            -40      39                Points:          80
 RS_GRID| Real space fully replicated
 RS_GRID| Group size                                                           1

  HFX_INFO| Replica ID:                                                        1
  HFX_INFO| FRACTION:                                               0.2500000000
  HFX_INFO| Interaction Potential:                                       COULOMB
  HFX_INFO| EPS_SCHWARZ:                                                 1.0E-10
  HFX_INFO| EPS_SCHWARZ_FORCES                                           1.0E-08
  HFX_INFO| EPS_STORAGE_SCALING:                                         1.0E+00
  HFX_INFO| NBINS:                                                            64
  HFX_INFO| BLOCK_SIZE:                                                        1
  HFX_INFO| Number of periodic shells considered:                           NONE
  HFX_INFO| Number of periodic cells considered:                            NONE

 
 RI-RPA| using GPW style
 

 OVERLAP MATRIX CONDITION NUMBER
 1-Norm Condition Number (Estimate)
   CN : |A|*|A^-1|:  8.480E+000 *  2.247E+004   = 1.905E+005  Log(1-CN):  5.2799
 1-Norm and 2-Norm Condition Numbers using Diagonalization
   CN : |A|*|A^-1|:  8.480E+000 *  2.247E+004   = 1.905E+005  Log(1-CN):  5.2799
   CN : max/min ev:  5.779E+000 /  7.228E-005   = 7.995E+004  Log(2-CN):  4.9028

 Number of electrons:                                                         12
 Number of occupied orbitals:                                                  6
 Number of molecular orbitals:                                                92

 Number of orbital functions:                                                 92
 Number of independent orbital functions:                                     92

 Extrapolation method: initial_guess

 Atomic guess: The first density matrix is obtained in terms of atomic orbitals
               and electronic configurations assigned to each atomic kind

 Guess for atomic kind: C

 Electronic structure
    Total number of core electrons                                          0.00
    Total number of valence electrons                                       6.00
    Total number of electrons                                               6.00
    Multiplicity                                                   not specified
    S      2.00  2.00
    P      2.00


 *******************************************************************************
                  Iteration          Convergence                     Energy [au]
 *******************************************************************************
                          1        0.107919                     -37.407214584056
                          2        0.944601E-01                 -37.411974260121
                          3        0.135126E-02                 -37.422101193838
                          4        0.254792E-03                 -37.422104372202
                          5        0.563522E-05                 -37.422104444613
                          6        0.107896E-06                 -37.422104444674

 Energy components [Hartree]           Total Energy ::          -37.422104444674
                                        Band Energy ::          -21.296184300047
                                     Kinetic Energy ::           37.178589977108
                                   Potential Energy ::          -74.600694421782
                                      Virial (-V/T) ::            2.006549857531
                                        Core Energy ::          -50.317487522836
                                          XC Energy ::           -4.728464131958
                                     Coulomb Energy ::           17.623847210120

 Orbital energies  State     L     Occupation   Energy[a.u.]          Energy[eV]

                       1     0          2.000      -9.947922         -270.696712
                       2     0          2.000      -0.501180          -13.637806

                       1     1          2.000      -0.198990           -5.414805


 Total Electron Density at R=0:                                       120.710098
 Re-scaling the density matrix to get the right number of electrons
                  # Electrons              Trace(P)               Scaling factor
                           12                12.000                        1.000


 SCF WAVEFUNCTION OPTIMIZATION

  Step     Update method      Time    Convergence         Total energy    Change
  ------------------------------------------------------------------------------

  HFX_MEM_INFO| Est. max. program size before HFX [MiB]:                    2148
  HFX_MEM_INFO| Number of cart. primitive ERI's calculated:            119260925
  HFX_MEM_INFO| Number of sph. ERI's calculated:                        26864736
  HFX_MEM_INFO| Number of sph. ERI's stored in-core:                    26864736
  HFX_MEM_INFO| Number of sph. ERI's stored on disk:                           0
  HFX_MEM_INFO| Number of sph. ERI's calculated on the fly:                    0
  HFX_MEM_INFO| Total memory consumption ERI's RAM [MiB]:                     93
  HFX_MEM_INFO| Whereof max-vals [MiB]:                                        1
  HFX_MEM_INFO| Total compression factor ERI's RAM:                         2.22
  HFX_MEM_INFO| Total memory consumption ERI's disk [MiB]:                     0
  HFX_MEM_INFO| Total compression factor ERI's disk:                        0.00
  HFX_MEM_INFO| Size of density/Fock matrix [MiB]:                             0
  HFX_MEM_INFO| Size of buffers [MiB]:                                         0
  HFX_MEM_INFO| Est. max. program size after HFX  [MiB]:                    2664

     1 NoMix/Diag. 0.10E+00    9.4     0.98497042       -76.0165802376 -7.60E+01
     2 Broy./Diag. 0.10E+00    4.9     0.05706011       -75.2724417302  7.44E-01
     3 Broy./Diag. 0.10E+00    5.1     0.04953894       -75.0166978130  2.56E-01
     4 Broy./Diag. 0.10E+00    5.0     0.14089823       -75.1514840659 -1.35E-01
     5 Broy./Diag. 0.10E+00    5.1     0.03561917       -75.6295760467 -4.78E-01
     6 Broy./Diag. 0.10E+00    5.1     0.00969417       -75.7288214699 -9.92E-02
     7 Broy./Diag. 0.10E+00    5.2     0.00913649       -75.7419327415 -1.31E-02
     8 Broy./Diag. 0.10E+00    5.2     0.00173386       -75.7478086214 -5.88E-03
     9 Broy./Diag. 0.10E+00    5.3     0.01776759       -75.7447875295  3.02E-03
    10 Broy./Diag. 0.10E+00    5.4     0.00387800       -75.7620556799 -1.73E-02
    11 Broy./Diag. 0.10E+00    5.5     0.00232470       -75.7793979347 -1.73E-02
    12 Broy./Diag. 0.10E+00    5.4     0.01346752       -75.7930848127 -1.37E-02
    13 Broy./Diag. 0.10E+00    5.4     0.00203187       -75.8009661147 -7.88E-03
    14 Broy./Diag. 0.10E+00    5.3     0.00417498       -75.7980555443  2.91E-03
    15 Broy./Diag. 0.10E+00    5.5     0.00833823       -75.7947765417  3.28E-03
    16 Broy./Diag. 0.10E+00    5.5     0.00120451       -75.7962487660 -1.47E-03
    17 Broy./Diag. 0.10E+00    5.5     0.00996455       -75.7991593163 -2.91E-03
    18 Broy./Diag. 0.10E+00    5.6     0.01203060       -75.8028420557 -3.68E-03
    19 Broy./Diag. 0.10E+00    5.5     0.00047364       -75.8045072969 -1.67E-03
    20 Broy./Diag. 0.10E+00    5.5     0.00051980       -75.8043990488  1.08E-04
    21 Broy./Diag. 0.10E+00    5.4     0.00676146       -75.8014498438  2.95E-03
    22 Broy./Diag. 0.10E+00    5.4     0.00238531       -75.7994468937  2.00E-03
    23 Broy./Diag. 0.10E+00    5.5     0.00193778       -75.7996288395 -1.82E-04
    24 Broy./Diag. 0.10E+00    5.4     0.00187597       -75.7999643758 -3.36E-04
    25 Broy./Diag. 0.10E+00    5.4     0.00179438       -75.8003098277 -3.45E-04
    26 Broy./Diag. 0.10E+00    5.4     0.00157909       -75.8002095802  1.00E-04
    27 Broy./Diag. 0.10E+00    5.3     0.00484951       -75.8001922995  1.73E-05
    28 Broy./Diag. 0.10E+00    5.4     0.00159016       -75.8004341296 -2.42E-04
    29 Broy./Diag. 0.10E+00    5.5     0.00101753       -75.8010317966 -5.98E-04
    30 Broy./Diag. 0.10E+00    5.3     0.00095664       -75.8014799122 -4.48E-04
    31 Broy./Diag. 0.10E+00    5.4     0.00101561       -75.8016221328 -1.42E-04
    32 Broy./Diag. 0.10E+00    5.4     0.00178199       -75.8019984713 -3.76E-04
    33 Broy./Diag. 0.10E+00    5.5     0.00219499       -75.8025305160 -5.32E-04
    34 Broy./Diag. 0.10E+00    5.6     0.00745612       -75.8020728360  4.58E-04
    35 Broy./Diag. 0.10E+00    5.5     0.01249253       -75.8025745386 -5.02E-04
    36 Broy./Diag. 0.10E+00    5.5     0.00114449       -75.8024997474  7.48E-05
    37 Broy./Diag. 0.10E+00    5.5     0.00549562       -75.8016277675  8.72E-04
    38 Broy./Diag. 0.10E+00    5.4     0.00190266       -75.8017275737 -9.98E-05
    39 Broy./Diag. 0.10E+00    5.4     0.00198602       -75.8013715505  3.56E-04
    40 Broy./Diag. 0.10E+00    5.4     0.00340771       -75.8013695025  2.05E-06
    41 Broy./Diag. 0.10E+00    5.4     0.01255951       -75.8023003682 -9.31E-04
    42 Broy./Diag. 0.10E+00    5.4     0.01027583       -75.8026855159 -3.85E-04
    43 Broy./Diag. 0.10E+00    5.3     0.00190576       -75.8006510282  2.03E-03
    44 Broy./Diag. 0.10E+00    5.4     0.00177507       -75.8006650772 -1.40E-05
    45 Broy./Diag. 0.10E+00    5.4     0.00248771       -75.8009817961 -3.17E-04
    46 Broy./Diag. 0.10E+00    5.3     0.00243589       -75.8004474685  5.34E-04
    47 Broy./Diag. 0.10E+00    5.4     0.00301399       -75.8007918745 -3.44E-04
    48 Broy./Diag. 0.10E+00    5.4     0.01756257       -75.8007455129  4.64E-05
    49 Broy./Diag. 0.10E+00    5.5     0.01023231       -75.8007978471 -5.23E-05
    50 Broy./Diag. 0.10E+00    5.5     0.00704284       -75.8000724197  7.25E-04
    51 Broy./Diag. 0.10E+00    5.6     0.00360274       -75.7999293421  1.43E-04
    52 Broy./Diag. 0.10E+00    5.5     0.00392513       -75.7997001659  2.29E-04
    53 Broy./Diag. 0.10E+00    5.5     0.00429521       -75.8008885213 -1.19E-03
    54 Broy./Diag. 0.10E+00    5.4     0.00491652       -75.8021295440 -1.24E-03
    55 Broy./Diag. 0.10E+00    5.4     0.00963200       -75.8034471878 -1.32E-03
    56 Broy./Diag. 0.10E+00    5.4     0.01350175       -75.8070636071 -3.62E-03
    57 Broy./Diag. 0.10E+00    5.4     0.00791459       -75.8062769687  7.87E-04
    58 Broy./Diag. 0.10E+00    5.4     0.00829590       -75.8034695365  2.81E-03
    59 Broy./Diag. 0.10E+00    5.5     0.02089535       -75.8028231413  6.46E-04
    60 Broy./Diag. 0.10E+00    5.4     0.00707627       -75.8018574316  9.66E-04
    61 Broy./Diag. 0.10E+00    5.4     0.00588319       -75.8011014265  7.56E-04
    62 Broy./Diag. 0.10E+00    5.4     0.00459915       -75.8006221713  4.79E-04
    63 Broy./Diag. 0.10E+00    5.3     0.00578387       -75.8000738453  5.48E-04
    64 Broy./Diag. 0.10E+00    5.4     0.00776506       -75.7992589228  8.15E-04
    65 Broy./Diag. 0.10E+00    5.5     0.01036180       -75.7990621537  1.97E-04
    66 Broy./Diag. 0.10E+00    5.5     0.01390998       -75.7986104172  4.52E-04
    67 Broy./Diag. 0.10E+00    5.5     0.01855664       -75.7980756158  5.35E-04
    68 Broy./Diag. 0.10E+00    5.6     0.02419801       -75.7965149077  1.56E-03
    69 Broy./Diag. 0.10E+00    5.6     0.03182566       -75.7925578894  3.96E-03
    70 Broy./Diag. 0.10E+00    5.5     0.04065755       -75.7871613995  5.40E-03
    71 Broy./Diag. 0.10E+00    5.5     0.05716330       -75.7802574196  6.90E-03
    72 Broy./Diag. 0.10E+00    5.5     0.08592323       -75.7698265250  1.04E-02
    73 Broy./Diag. 0.10E+00    5.4     0.11970738       -75.7466493655  2.32E-02
    74 Broy./Diag. 0.10E+00    5.4     0.14829083       -75.7133577173  3.33E-02
    75 Broy./Diag. 0.10E+00    5.4     0.16513079       -75.6682653879  4.51E-02
    76 Broy./Diag. 0.10E+00    5.4     0.16094762       -75.6166548436  5.16E-02
    77 Broy./Diag. 0.10E+00    5.4     0.13838338       -75.5645862802  5.21E-02
    78 Broy./Diag. 0.10E+00    5.3     0.10662686       -75.5288503662  3.57E-02
    79 Broy./Diag. 0.10E+00    5.4     0.10139001       -75.5207071243  8.14E-03
    80 Broy./Diag. 0.10E+00    5.3     0.07242607       -75.5054706514  1.52E-02
    81 Broy./Diag. 0.10E+00    5.4     0.04324999       -75.4645359584  4.09E-02
    82 Broy./Diag. 0.10E+00    5.6     0.03942507       -75.4391456921  2.54E-02
    83 Broy./Diag. 0.10E+00    5.5     0.03713555       -75.4181136110  2.10E-02
    84 Broy./Diag. 0.10E+00    5.6     0.02835661       -75.4009523202  1.72E-02
    85 Broy./Diag. 0.10E+00    5.5     0.10140197       -75.3781862521  2.28E-02
    86 Broy./Diag. 0.10E+00    5.4     0.11487965       -75.3514660266  2.67E-02
    87 Broy./Diag. 0.10E+00    5.4     0.20674746       -75.3702372675 -1.88E-02
    88 Broy./Diag. 0.10E+00    5.4     0.27792918       -75.2262195990  1.44E-01
    89 Broy./Diag. 0.10E+00    5.4     0.21458142       -75.3667066351 -1.40E-01
    90 Broy./Diag. 0.10E+00    5.5     0.08843069       -75.4217951652 -5.51E-02
    91 Broy./Diag. 0.10E+00    5.4     0.13753499       -75.3752290499  4.66E-02
    92 Broy./Diag. 0.10E+00    5.3     0.44964207       -75.3644090455  1.08E-02
    93 Broy./Diag. 0.10E+00    5.3     0.17748500       -75.4292086291 -6.48E-02
    94 Broy./Diag. 0.10E+00    5.3     0.17703926       -75.6049921328 -1.76E-01
    95 Broy./Diag. 0.10E+00    5.5     0.20259378       -75.5906381609  1.44E-02
    96 Broy./Diag. 0.10E+00    5.4     0.10153744       -75.6311318936 -4.05E-02
    97 Broy./Diag. 0.10E+00    5.4     0.12256085       -75.6571878244 -2.61E-02
    98 Broy./Diag. 0.10E+00    5.5     0.11300538       -75.6860114696 -2.88E-02
    99 Broy./Diag. 0.10E+00    5.5     0.09083993       -75.7507876180 -6.48E-02
   100 Broy./Diag. 0.10E+00    5.5     0.07363017       -75.8268799601 -7.61E-02
   101 Broy./Diag. 0.10E+00    5.5     0.07809289       -75.9775932467 -1.51E-01
   102 Broy./Diag. 0.10E+00    5.5     0.23849573       -76.0393524380 -6.18E-02
   103 Broy./Diag. 0.10E+00    5.5     0.18485647       -75.9970575751  4.23E-02
   104 Broy./Diag. 0.10E+00    5.5     0.11022156       -76.0991577779 -1.02E-01
   105 Broy./Diag. 0.10E+00    5.4     0.20160063       -75.9229702853  1.76E-01
   106 Broy./Diag. 0.10E+00    5.4     0.19004797       -75.7817688735  1.41E-01
   107 Broy./Diag. 0.10E+00    5.4     0.16397253       -75.7128541942  6.89E-02
   108 Broy./Diag. 0.10E+00    5.4     0.27153844       -75.6102653911  1.03E-01
   109 Broy./Diag. 0.10E+00    5.3     0.06276281       -75.5627434491  4.75E-02
   110 Broy./Diag. 0.10E+00    5.3     0.13757405       -75.6040427197 -4.13E-02
   111 Broy./Diag. 0.10E+00    5.4     0.06643394       -75.7105344683 -1.06E-01
   112 Broy./Diag. 0.10E+00    5.4     0.06994958       -75.6669199060  4.36E-02
   113 Broy./Diag. 0.10E+00    5.5     0.04076503       -75.6834360486 -1.65E-02
   114 Broy./Diag. 0.10E+00    5.5     0.06555998       -75.7197182265 -3.63E-02
   115 Broy./Diag. 0.10E+00    5.5     0.12500477       -75.7500833769 -3.04E-02
   116 Broy./Diag. 0.10E+00    5.6     0.13079529       -75.7270433973  2.30E-02
   117 Broy./Diag. 0.10E+00    5.5     0.30913756       -75.8019044181 -7.49E-02
   118 Broy./Diag. 0.10E+00    5.4     0.27377149       -75.8369434772 -3.50E-02
   119 Broy./Diag. 0.10E+00    5.5     0.15865430       -75.8516364555 -1.47E-02
   120 Broy./Diag. 0.10E+00    5.4     0.11416666       -75.8351391345  1.65E-02
   121 Broy./Diag. 0.10E+00    5.5     0.08962943       -75.8388202474 -3.68E-03
   122 Broy./Diag. 0.10E+00    5.4     0.06410101       -75.8283769299  1.04E-02
   123 Broy./Diag. 0.10E+00    5.4     0.05535569       -75.8466845017 -1.83E-02
   124 Broy./Diag. 0.10E+00    5.4     0.04868500       -75.8274774749  1.92E-02
   125 Broy./Diag. 0.10E+00    5.4     0.02603090       -75.8296390933 -2.16E-03
   126 Broy./Diag. 0.10E+00    5.4     0.09508902       -75.7891615693  4.05E-02
   127 Broy./Diag. 0.10E+00    5.6     0.10379420       -75.8532499191 -6.41E-02
   128 Broy./Diag. 0.10E+00    5.5     0.16130978       -75.8451312107  8.12E-03
   129 Broy./Diag. 0.10E+00    5.6     0.15277635       -75.8508137000 -5.68E-03
   130 Broy./Diag. 0.10E+00    5.6     0.19927864       -75.7725593913  7.83E-02
   131 Broy./Diag. 0.10E+00    5.6     0.11920296       -75.7651098566  7.45E-03
   132 Broy./Diag. 0.10E+00    5.6     0.07556521       -75.7261908727  3.89E-02
   133 Broy./Diag. 0.10E+00    5.5     0.06863723       -75.7014996719  2.47E-02
   134 Broy./Diag. 0.10E+00    5.4     0.08552727       -75.6493104278  5.22E-02
   135 Broy./Diag. 0.10E+00    5.4     0.07606384       -75.6504546878 -1.14E-03
   136 Broy./Diag. 0.10E+00    5.4     0.06164800       -75.6481721268  2.28E-03
   137 Broy./Diag. 0.10E+00    5.4     0.04886227       -75.6323960516  1.58E-02
   138 Broy./Diag. 0.10E+00    5.4     0.02389402       -75.6421950009 -9.80E-03
   139 Broy./Diag. 0.10E+00    5.4     0.12146451       -75.7446616900 -1.02E-01
   140 Broy./Diag. 0.10E+00    5.4     0.20315917       -75.8283401711 -8.37E-02
   141 Broy./Diag. 0.10E+00    5.4     0.32255209       -75.8807208679 -5.24E-02
   142 Broy./Diag. 0.10E+00    5.4     0.22871026       -75.9254132845 -4.47E-02
   143 Broy./Diag. 0.10E+00    5.4     0.12100406       -75.8359170539  8.95E-02
   144 Broy./Diag. 0.10E+00    5.6     0.17413826       -75.8338423362  2.07E-03
   145 Broy./Diag. 0.10E+00    5.6     0.16678765       -75.8163410802  1.75E-02
   146 Broy./Diag. 0.10E+00    5.5     0.08741438       -75.8037686588  1.26E-02
   147 Broy./Diag. 0.10E+00    5.6     0.06983867       -75.7785253838  2.52E-02
   148 Broy./Diag. 0.10E+00    5.5     0.06036368       -75.7630689326  1.55E-02
   149 Broy./Diag. 0.10E+00    5.5     0.10728490       -75.7140960984  4.90E-02
   150 Broy./Diag. 0.10E+00    5.4     0.13022099       -75.6289935070  8.51E-02
   151 Broy./Diag. 0.10E+00    5.4     0.08223773       -75.6812087913 -5.22E-02
   152 Broy./Diag. 0.10E+00    5.4     0.03189897       -75.6824777105 -1.27E-03
   153 Broy./Diag. 0.10E+00    5.4     0.05682470       -75.6843170567 -1.84E-03
   154 Broy./Diag. 0.10E+00    5.4     0.09715679       -75.7256776715 -4.14E-02
   155 Broy./Diag. 0.10E+00    5.4     0.10767751       -75.7667605732 -4.11E-02
   156 Broy./Diag. 0.10E+00    5.4     0.20750305       -75.8142132707 -4.75E-02
   157 Broy./Diag. 0.10E+00    5.4     0.20444593       -75.8534537662 -3.92E-02
   158 Broy./Diag. 0.10E+00    5.5     0.17535742       -75.8874766143 -3.40E-02
   159 Broy./Diag. 0.10E+00    5.5     0.20056499       -75.9565947707 -6.91E-02
   160 Broy./Diag. 0.10E+00    5.5     0.07252200       -75.9477156008  8.88E-03
   161 Broy./Diag. 0.10E+00    5.6     0.03184672       -75.8843395581  6.34E-02
   162 Broy./Diag. 0.10E+00    5.5     0.01044053       -75.8614022370  2.29E-02
   163 Broy./Diag. 0.10E+00    5.4     0.00579209       -75.8550596783  6.34E-03
   164 Broy./Diag. 0.10E+00    5.4     0.00875831       -75.8618184058 -6.76E-03
   165 Broy./Diag. 0.10E+00    5.4     0.03379592       -75.9030607501 -4.12E-02
   166 Broy./Diag. 0.10E+00    5.4     0.04850426       -75.9101145123 -7.05E-03
   167 Broy./Diag. 0.10E+00    5.4     0.02850570       -75.8287199242  8.14E-02
   168 Broy./Diag. 0.10E+00    5.4     0.03880648       -75.8174316436  1.13E-02
   169 Broy./Diag. 0.10E+00    5.4     0.02387357       -75.8242413979 -6.81E-03
   170 Broy./Diag. 0.10E+00    5.4     0.01468444       -75.8205580794  3.68E-03
   171 Broy./Diag. 0.10E+00    5.4     0.02607267       -75.8198129661  7.45E-04
   172 Broy./Diag. 0.10E+00    5.5     0.02210978       -75.8177299247  2.08E-03
   173 Broy./Diag. 0.10E+00    5.5     0.01428251       -75.8169034133  8.27E-04
   174 Broy./Diag. 0.10E+00    5.5     0.02844270       -75.8141591808  2.74E-03
   175 Broy./Diag. 0.10E+00    5.6     0.02586157       -75.8086741590  5.49E-03
   176 Broy./Diag. 0.10E+00    5.6     0.01712696       -75.8061950193  2.48E-03
   177 Broy./Diag. 0.10E+00    5.6     0.02208309       -75.8052324127  9.63E-04
   178 Broy./Diag. 0.10E+00    5.5     0.02754221       -75.8027862168  2.45E-03
   179 Broy./Diag. 0.10E+00    5.4     0.03505628       -75.7971508019  5.64E-03
   180 Broy./Diag. 0.10E+00    5.4     0.04386019       -75.7939395158  3.21E-03
   181 Broy./Diag. 0.10E+00    5.4     0.06276872       -75.7873255683  6.61E-03
   182 Broy./Diag. 0.10E+00    5.4     0.09346210       -75.7766695889  1.07E-02
   183 Broy./Diag. 0.10E+00    5.4     0.10932620       -75.7564479188  2.02E-02
   184 Broy./Diag. 0.10E+00    5.4     0.18732477       -75.7172170131  3.92E-02
   185 Broy./Diag. 0.10E+00    5.4     0.18336370       -75.6798504644  3.74E-02
   186 Broy./Diag. 0.10E+00    5.4     0.18663470       -75.6210522462  5.88E-02
   187 Broy./Diag. 0.10E+00    5.4     0.19308725       -75.5627106290  5.83E-02
   188 Broy./Diag. 0.10E+00    5.5     0.10756934       -75.5339829474  2.87E-02
   189 Broy./Diag. 0.10E+00    5.5     0.07665919       -75.5079728389  2.60E-02
   190 Broy./Diag. 0.10E+00    5.5     0.05055457       -75.4904230230  1.75E-02
   191 Broy./Diag. 0.10E+00    5.6     0.04212909       -75.4784435483  1.20E-02
   192 Broy./Diag. 0.10E+00    5.6     0.03518922       -75.4746390067  3.80E-03
   193 Broy./Diag. 0.10E+00    5.6     0.03300007       -75.5055496338 -3.09E-02
   194 Broy./Diag. 0.10E+00    5.6     0.07240067       -75.5742714609 -6.87E-02
   195 Broy./Diag. 0.10E+00    5.4     0.12802740       -75.7004710691 -1.26E-01
   196 Broy./Diag. 0.10E+00    5.4     0.06591873       -75.7720825278 -7.16E-02
   197 Broy./Diag. 0.10E+00    5.4     0.15354756       -75.8081116810 -3.60E-02
   198 Broy./Diag. 0.10E+00    5.4     0.32548655       -75.8099130625 -1.80E-03
   199 Broy./Diag. 0.10E+00    5.5     0.24541656       -75.8118983652 -1.99E-03
   200 Broy./Diag. 0.10E+00    5.4     0.12320595       -75.8272494823 -1.54E-02
   201 Broy./Diag. 0.10E+00    5.4     0.12412201       -75.8690272266 -4.18E-02
   202 Broy./Diag. 0.10E+00    5.5     0.06984429       -75.8732470268 -4.22E-03
   203 Broy./Diag. 0.10E+00    5.5     0.04275831       -75.8736370759 -3.90E-04
   204 Broy./Diag. 0.10E+00    5.5     0.06340350       -75.8770579768 -3.42E-03
   205 Broy./Diag. 0.10E+00    5.5     0.06300883       -75.8523375097  2.47E-02
   206 Broy./Diag. 0.10E+00    5.4     0.05976412       -75.8266447956  2.57E-02
   207 Broy./Diag. 0.10E+00    5.5     0.14436095       -75.7429041289  8.37E-02
   208 Broy./Diag. 0.10E+00    5.6     0.08238218       -75.7033755448  3.95E-02
   209 Broy./Diag. 0.10E+00    5.6     0.14244255       -75.7565452852 -5.32E-02
[...]
   418 Broy./Diag. 0.10E+00    5.5     0.06242185       -75.8676923783  7.44E-02
   419 Broy./Diag. 0.10E+00    5.5     0.06399409       -75.7927748922  7.49E-02
   420 Broy./Diag. 0.10E+00    5.6     0.05118342       -75.8061860569 -1.34E-02
   421 Broy./Diag. 0.10E+00    5.4     0.03813033       -75.8209939602 -1.48E-02
   422 Broy./Diag. 0.10E+00    5.4     0.03685471       -75.8324167367 -1.14E-02
   423 Broy./Diag. 0.10E+00    5.4     0.07751694       -75.8462504443 -1.38E-02
   424 Broy./Diag. 0.10E+00    5.4     0.08738118       -75.8413447815  4.91E-03
   425 Broy./Diag. 0.10E+00    5.4     0.06147519       -75.8444415789 -3.10E-03
   426 Broy./Diag. 0.10E+00    5.4     0.09577296       -75.8610442673 -1.66E-02
   427 Broy./Diag. 0.10E+00    5.4     0.12037979       -75.8698910050 -8.85E-03
   428 Broy./Diag. 0.10E+00    5.5     0.12174273       -75.8722874453 -2.40E-03
   429 Broy./Diag. 0.10E+00    5.4     0.10764483       -75.8556900192  1.66E-02
   430 Broy./Diag. 0.10E+00    5.5     0.11773869       -75.8237664219  3.19E-02
   431 Broy./Diag. 0.10E+00    5.6     0.12953170       -75.7886216344  3.51E-02
   432 Broy./Diag. 0.10E+00    5.5     0.12741293       -75.7392335424  4.94E-02
   433 Broy./Diag. 0.10E+00    5.5     0.10239355       -75.7030373008  3.62E-02
   434 Broy./Diag. 0.10E+00    5.5     0.09538939       -75.6743551259  2.87E-02
   435 Broy./Diag. 0.10E+00    5.5     0.07822514       -75.6503489545  2.40E-02
   436 Broy./Diag. 0.10E+00    5.5     0.07511199       -75.6206189810  2.97E-02
   437 Broy./Diag. 0.10E+00    5.4     0.05800041       -75.6014053583  1.92E-02
   438 Broy./Diag. 0.10E+00    5.5     0.04868606       -75.5786644381  2.27E-02
   439 Broy./Diag. 0.10E+00    5.4     0.13627430       -75.6450039036 -6.63E-02
   440 Broy./Diag. 0.10E+00    5.5     0.07709481       -75.6852872559 -4.03E-02
   441 Broy./Diag. 0.10E+00    5.4     0.03359152       -75.6989813317 -1.37E-02
   442 Broy./Diag. 0.10E+00    5.4     0.04734794       -75.6651296928  3.39E-02
   443 Broy./Diag. 0.10E+00    5.4     0.07685991       -75.6680152670 -2.89E-03
   444 Broy./Diag. 0.10E+00    5.4     0.07912273       -75.7172746926 -4.93E-02
   445 Broy./Diag. 0.10E+00    5.5     0.04010047       -75.7578015740 -4.05E-02
   446 Broy./Diag. 0.10E+00    5.6     0.07015597       -75.7648386895 -7.04E-03
   447 Broy./Diag. 0.10E+00    5.5     0.11677405       -75.7802231000 -1.54E-02
   448 Broy./Diag. 0.10E+00    5.5     0.12584961       -75.7913490108 -1.11E-02
   449 Broy./Diag. 0.10E+00    5.5     0.14327771       -75.8195459444 -2.82E-02
   450 Broy./Diag. 0.10E+00    5.4     0.14501267       -75.7951630275  2.44E-02
   451 Broy./Diag. 0.10E+00    5.4     0.18524693       -75.7842282833  1.09E-02
   452 Broy./Diag. 0.10E+00    5.5     0.15233037       -75.8238169997 -3.96E-02
   453 Broy./Diag. 0.10E+00    5.4     0.10514405       -75.8717126412 -4.79E-02
   454 Broy./Diag. 0.10E+00    5.4     0.11550102       -75.8939331315 -2.22E-02
   455 Broy./Diag. 0.10E+00    5.4     0.11003334       -75.9055261610 -1.16E-02
   456 Broy./Diag. 0.10E+00    5.4     0.09298979       -75.9071376522 -1.61E-03
   457 Broy./Diag. 0.10E+00    5.4     0.10132116       -75.8825324413  2.46E-02
   458 Broy./Diag. 0.10E+00    5.4     0.14313796       -75.8612436337  2.13E-02
   459 Broy./Diag. 0.10E+00    5.4     0.12007483       -75.8472557942  1.40E-02
   460 Broy./Diag. 0.10E+00    5.4     0.11942253       -75.8268314086  2.04E-02
   461 Broy./Diag. 0.10E+00    5.5     0.08002420       -75.7881100225  3.87E-02
   462 Broy./Diag. 0.10E+00    5.5     0.09137423       -75.7731597580  1.50E-02
   463 Broy./Diag. 0.10E+00    5.6     0.17916789       -75.7198293618  5.33E-02
   464 Broy./Diag. 0.10E+00    5.6     0.14854081       -75.6799815229  3.98E-02
   465 Broy./Diag. 0.10E+00    5.5     0.20699297       -75.6189833544  6.10E-02
   466 Broy./Diag. 0.10E+00    5.4     0.15848174       -75.6381433785 -1.92E-02
   467 Broy./Diag. 0.10E+00    5.4     0.23943388       -75.5153961986  1.23E-01
   468 Broy./Diag. 0.10E+00    5.4     0.12515645       -75.3946874226  1.21E-01
   469 Broy./Diag. 0.10E+00    5.4     0.24861965       -75.3550811179  3.96E-02
   470 Broy./Diag. 0.10E+00    5.4     0.15226331       -75.5489504598 -1.94E-01
   471 Broy./Diag. 0.10E+00    5.4     0.10101575       -75.6705448853 -1.22E-01
   472 Broy./Diag. 0.10E+00    5.4     0.04636877       -75.6979842063 -2.74E-02
   473 Broy./Diag. 0.10E+00    5.4     0.11626023       -75.7440052675 -4.60E-02
   474 Broy./Diag. 0.10E+00    5.4     0.46677246       -75.8736769341 -1.30E-01
   475 Broy./Diag. 0.10E+00    5.4     0.22664190       -75.8908036897 -1.71E-02
   476 Broy./Diag. 0.10E+00    5.4     0.18598573       -75.9079396220 -1.71E-02
   477 Broy./Diag. 0.10E+00    5.6     0.18626550       -75.9401841405 -3.22E-02
   478 Broy./Diag. 0.10E+00    5.5     0.12400075       -75.9643311093 -2.41E-02
   479 Broy./Diag. 0.10E+00    5.5     0.10155392       -75.9788036889 -1.45E-02
   480 Broy./Diag. 0.10E+00    5.5     0.09220439       -75.9763420174  2.46E-03
   481 Broy./Diag. 0.10E+00    5.5     0.13032396       -75.9297750776  4.66E-02
   482 Broy./Diag. 0.10E+00    5.4     0.11436039       -75.8570120067  7.28E-02
   483 Broy./Diag. 0.10E+00    5.4     0.11718297       -75.7688294692  8.82E-02
   484 Broy./Diag. 0.10E+00    5.4     0.09139199       -75.7464800512  2.23E-02
   485 Broy./Diag. 0.10E+00    5.4     0.11246085       -75.7932912003 -4.68E-02
   486 Broy./Diag. 0.10E+00    5.5     0.14610036       -75.7811458688  1.21E-02
   487 Broy./Diag. 0.10E+00    5.4     0.14418011       -75.7847948238 -3.65E-03
   488 Broy./Diag. 0.10E+00    5.4     0.12080570       -75.7623217187  2.25E-02
   489 Broy./Diag. 0.10E+00    5.4     0.07332961       -75.7807701572 -1.84E-02
   490 Broy./Diag. 0.10E+00    5.4     0.03759327       -75.7613407182  1.94E-02
   491 Broy./Diag. 0.10E+00    5.4     0.02532883       -75.7501075960  1.12E-02
   492 Broy./Diag. 0.10E+00    5.4     0.04776928       -75.7612102682 -1.11E-02
   493 Broy./Diag. 0.10E+00    5.5     0.04720140       -75.7785422583 -1.73E-02
   494 Broy./Diag. 0.10E+00    5.7     0.04957557       -75.7717082444  6.83E-03
   495 Broy./Diag. 0.10E+00    5.5     0.03867844       -75.7712446586  4.64E-04
   496 Broy./Diag. 0.10E+00    5.7     0.04329513       -75.7683019837  2.94E-03
   497 Broy./Diag. 0.10E+00    5.5     0.05245152       -75.7579923674  1.03E-02
   498 Broy./Diag. 0.10E+00    5.4     0.06739739       -75.7492447164  8.75E-03
   499 Broy./Diag. 0.10E+00    5.4     0.07575799       -75.7432802512  5.96E-03
   500 Broy./Diag. 0.10E+00    5.4     0.07388128       -75.7376609358  5.62E-03

  Leaving inner SCF loop after reaching   500 steps.


  Electronic density on regular grids:         -8.5349321618        3.4650678382
  Core density on regular grids:               12.0000000000        0.0000000000
  Hard and soft densities (Lebedev):          -28.6824482392      -25.2157794872
  Total Rho_soft + Rho1_hard - Rho1_soft      -12.0016009138
  Total charge density (r-space):              -0.0016009138
  Total Rho_soft + Rho0_soft (g-space):        -0.0016009836

  Overlap energy of the core charge distribution:               0.00003125550742
  Self energy of the core charge distribution:                -58.22549323810243
  Core Hamiltonian energy:                                    -15.20213940392079
  Hartree energy:                                              16.71629172853292
  Exchange-correlation energy:                                 -2.75266235961477
  Hartree-Fock Exchange energy:                                -2.52424622696364

  GAPW| Exc from hard and soft atomic rho1:                    -5.20815236288976
  GAPW| local Eh = 1 center integrals:                         -8.54129032835703

  Total energy:                                               -75.73766093580809

 *******************************************************************************
 *   ___                                                                       *
 *  /   \                                                                      *
 * [ABORT]                                                                     *
 *  \___/     SCF run NOT converged. To continue the calculation regardless,   *
 *    |             please set the keyword IGNORE_CONVERGENCE_FAILURE.         *
 *  O/|                                                                        *
 * /| |                                                                        *
 * / \                                                            qs_scf.F:611 *
 *******************************************************************************


 ===== Routine Calling Stack ===== 

            3 scf_env_do_scf
            2 qs_energies
            1 CP2K

 *******************************************************************************
 *   ___                                                                       *
 *  /   \                                                                      *
 * [ABORT]                                                                     *
 *  \___/     SCF run NOT converged. To continue the calculation regardless,   *
 *    |             please set the keyword IGNORE_CONVERGENCE_FAILURE.         *
 *  O/|                                                                        *
 * /| |                                                                        *
 * / \                                                            qs_scf.F:611 *
 *******************************************************************************


 ===== Routine Calling Stack ===== 

            3 scf_env_do_scf
            2 qs_energies
            1 CP2K

 *******************************************************************************
 *   ___                                                                       *
 *  /   \                                                                      *
 * [ABORT]                                                                     *
 *  \___/     SCF run NOT converged. To continue the calculation regardless,   *
 *    |             please set the keyword IGNORE_CONVERGENCE_FAILURE.         *
 *  O/|                                                                        *
 * /| |                                                                        *
 * / \                                                            qs_scf.F:611 *
 *******************************************************************************


 ===== Routine Calling Stack ===== 

            3 scf_env_do_scf
            2 qs_energies
            1 CP2K

 *******************************************************************************
 *   ___                                                                       *
 *  /   \                                                                      *
 * [ABORT]                                                                     *
 *  \___/     SCF run NOT converged. To continue the calculation regardless,   *
 *    |             please set the keyword IGNORE_CONVERGENCE_FAILURE.         *
 *  O/|                                                                        *
 * /| |                                                                        *
 * / \                                                            qs_scf.F:611 *
 *******************************************************************************


 ===== Routine Calling Stack ===== 

            3 scf_env_do_scf
            2 qs_energies
            1 CP2K

 *******************************************************************************
 *   ___                                                                       *
 *  /   \                                                                      *
 * [ABORT]                                                                     *
 *  \___/     SCF run NOT converged. To continue the calculation regardless,   *
 *    |             please set the keyword IGNORE_CONVERGENCE_FAILURE.         *
 *  O/|                                                                        *
 * /| |                                                                        *
 * / \                                                            qs_scf.F:611 *
 *******************************************************************************


 ===== Routine Calling Stack ===== 

            3 scf_env_do_scf
            2 qs_energies
            1 CP2K

 *******************************************************************************
 *   ___                                                                       *
 *  /   \                                                                      *
 * [ABORT]                                                                     *
 *  \___/     SCF run NOT converged. To continue the calculation regardless,   *
 *    |             please set the keyword IGNORE_CONVERGENCE_FAILURE.         *
 *  O/|                                                                        *
 * /| |                                                                        *
 * / \                                                            qs_scf.F:611 *
 *******************************************************************************


 ===== Routine Calling Stack ===== 

            3 scf_env_do_scf
            2 qs_energies
            1 CP2K

 *******************************************************************************
 *   ___                                                                       *
 *  /   \                                                                      *
 * [ABORT]                                                                     *
 *  \___/     SCF run NOT converged. To continue the calculation regardless,   *
 *    |             please set the keyword IGNORE_CONVERGENCE_FAILURE.         *
 *  O/|                                                                        *
 * /| |                                                                        *
 * / \                                                            qs_scf.F:611 *
 *******************************************************************************


 ===== Routine Calling Stack ===== 

            3 scf_env_do_scf
            2 qs_energies
            1 CP2K

 *******************************************************************************
 *   ___                                                                       *
 *  /   \                                                                      *
 * [ABORT]                                                                     *
 *  \___/     SCF run NOT converged. To continue the calculation regardless,   *
 *    |             please set the keyword IGNORE_CONVERGENCE_FAILURE.         *
 *  O/|                                                                        *
 * /| |                                                                        *
 * / \                                                            qs_scf.F:611 *
 *******************************************************************************


 ===== Routine Calling Stack ===== 

            3 scf_env_do_scf
            2 qs_energies
            1 CP2K

 *******************************************************************************
 *   ___                                                                       *
 *  /   \                                                                      *
 * [ABORT]                                                                     *
 *  \___/     SCF run NOT converged. To continue the calculation regardless,   *
 *    |             please set the keyword IGNORE_CONVERGENCE_FAILURE.         *
 *  O/|                                                                        *
 * /| |                                                                        *
 * / \                                                            qs_scf.F:611 *
 *******************************************************************************


 ===== Routine Calling Stack ===== 

            3 scf_env_do_scf
            2 qs_energies
            1 CP2K

 *******************************************************************************
 *   ___                                                                       *
 *  /   \                                                                      *
 * [ABORT]                                                                     *
 *  \___/     SCF run NOT converged. To continue the calculation regardless,   *
 *    |             please set the keyword IGNORE_CONVERGENCE_FAILURE.         *
 *  O/|                                                                        *
 * /| |                                                                        *
 * / \                                                            qs_scf.F:611 *
 *******************************************************************************


 ===== Routine Calling Stack ===== 

            3 scf_env_do_scf
            2 qs_energies
            1 CP2K

 *******************************************************************************
 *   ___                                                                       *
 *  /   \                                                                      *
 * [ABORT]                                                                     *
 *  \___/     SCF run NOT converged. To continue the calculation regardless,   *
 *    |             please set the keyword IGNORE_CONVERGENCE_FAILURE.         *
 *  O/|                                                                        *
 * /| |                                                                        *
 * / \                                                            qs_scf.F:611 *
 *******************************************************************************


 ===== Routine Calling Stack ===== 

            3 scf_env_do_scf
            2 qs_energies
            1 CP2K

 *******************************************************************************
 *   ___                                                                       *
 *  /   \                                                                      *
 * [ABORT]                                                                     *
 *  \___/     SCF run NOT converged. To continue the calculation regardless,   *
 *    |             please set the keyword IGNORE_CONVERGENCE_FAILURE.         *
 *  O/|                                                                        *
 * /| |                                                                        *
 * / \                                                            qs_scf.F:611 *
 *******************************************************************************


 ===== Routine Calling Stack ===== 

            3 scf_env_do_scf
            2 qs_energies
            1 CP2K

 *******************************************************************************
 *   ___                                                                       *
 *  /   \                                                                      *
 * [ABORT]                                                                     *
 *  \___/     SCF run NOT converged. To continue the calculation regardless,   *
 *    |             please set the keyword IGNORE_CONVERGENCE_FAILURE.         *
 *  O/|                                                                        *
 * /| |                                                                        *
 * / \                                                            qs_scf.F:611 *
 *******************************************************************************


 ===== Routine Calling Stack ===== 

            3 scf_env_do_scf
            2 qs_energies
            1 CP2K
