 DBCSR| CPU Multiplication driver                                           BLAS (U)
 DBCSR| Multrec recursion limit                                              512 (U)
 DBCSR| Multiplication stack size                                           1000 (D)
 DBCSR| Maximum elements for images                                    UNLIMITED (U)
 DBCSR| Multiplicative factor virtual images                                   1 (U)
 DBCSR| Use multiplication densification                                       T (D)
 DBCSR| Multiplication size stacks                                             3 (U)
 DBCSR| Use memory pool for CPU allocation                                     F (U)
 DBCSR| Number of 3D layers                                               SINGLE (U)
 DBCSR| Use MPI memory allocation                                              F (U)
 DBCSR| Use RMA algorithm                                                      F (U)
 DBCSR| Use Communication thread                                               T (U)
 DBCSR| Communication thread load                                             75 (D)
 DBCSR| MPI: My process id                                                     0
 DBCSR| MPI: Number of processes                                              48
 DBCSR| OMP: Current number of threads                                         4
 DBCSR| OMP: Max number of threads                                             4
 DBCSR| Split modifier for TAS multiplication algorithm                  1.0E+00 (U)


  **** **** ******  **  PROGRAM STARTED AT               2025-03-26 04:43:55.838
 ***** ** ***  *** **   PROGRAM STARTED ON                          i01r09c04s08
 **    ****   ******    PROGRAM STARTED BY                               di38fab
 ***** **    ** ** **   PROGRAM PROCESS ID                               3964209
  **** **  *******  **  PROGRAM STARTED IN /hppfs/scratch/04/di38fab/05_MOL/W4-1
                                           1+ALK/c2/DZVP/GW+BSE/1e-4

 CP2K| version string:                 CP2K version 2025.1 (Development Version)
 CP2K| source code revision number:                                  git:d2e611a
 CP2K| cp2kflags: omp libint fftw3 libxc parallel scalapack max_contr=4         
 CP2K| is freely available from                            https://www.cp2k.org/
 CP2K| Program compiled at                       Thu 06 Mar 2025 05:09:20 PM CET
 CP2K| Program compiled on                                               login02
 CP2K| Program compiled for                                        Supermuc-foss
 CP2K| Data directory path                  /hppfs/work/pn36zo/di38fab/cp2k/data
 CP2K| Input file name                                                    GW.inp

 GLOBAL| Force Environment number                                              1
 GLOBAL| Basis set file name            /hppfs/scratch/04/di38fab/04_TMD/BASIS_A
 GLOBAL| Potential file name            /hppfs/work/pn36zo/di38fab/cp2k/data/ALL
 GLOBAL| MM Potential file name                                     MM_POTENTIAL
 GLOBAL| Coordinate file name                                      __STD_INPUT__
 GLOBAL| Method name                                                        CP2K
 GLOBAL| Project name                                                       MoS2
 GLOBAL| Run type                                                         ENERGY
 GLOBAL| FFT library                                                       FFTW3
 GLOBAL| Diagonalization library                                       ScaLAPACK
 GLOBAL| DGEMM library                                                      BLAS
 GLOBAL| Orthonormality check for eigenvectors                          DISABLED
 GLOBAL| Matrix multiplication library                                 ScaLAPACK
 GLOBAL| All-to-all communication in single precision                          F
 GLOBAL| FFTs using library dependent lengths                                  F
 GLOBAL| Grid backend                                                       AUTO
 GLOBAL| Global print level                                               MEDIUM
 GLOBAL| MPI I/O enabled                                                       T
 GLOBAL| Total number of message passing processes                            48
 GLOBAL| Number of threads for this process                                    4
 GLOBAL| This output is from process                                           0
 GLOBAL| OpenMP stack size per thread (OMP_STACKSIZE)                    default
 GLOBAL| CPU model name             Intel(R) Xeon(R) Platinum 8174 CPU @ 3.10GHz

 MEMORY| system memory details [Kb]
 MEMORY|                        rank 0           min           max       average
 MEMORY| MemTotal             98436664      98436664      98436664      98436664
 MEMORY| MemFree              84406772      84025868      84406772      84149652
 MEMORY| Buffers                     0             0             0             0
 MEMORY| Cached                2401304       2386708       2404204       2397561
 MEMORY| Slab                  1208568       1208172       1220192       1212657
 MEMORY| SReclaimable           275228        267932        276308        272938
 MEMORY| MemLikelyFree        87083304      86696180      87083304      86820151


 *** Fundamental physical constants (SI units) ***

 *** Literature: B. J. Mohr and B. N. Taylor,
 ***             CODATA recommended values of the fundamental physical
 ***             constants: 2006, Web Version 5.1
 ***             http://physics.nist.gov/constants

 Speed of light in vacuum [m/s]                             2.99792458000000E+08
 Magnetic constant or permeability of vacuum [N/A**2]       1.25663706143592E-06
 Electric constant or permittivity of vacuum [F/m]          8.85418781762039E-12
 Planck constant (h) [J*s]                                  6.62606896000000E-34
 Planck constant (h-bar) [J*s]                              1.05457162825177E-34
 Elementary charge [C]                                      1.60217648700000E-19
 Electron mass [kg]                                         9.10938215000000E-31
 Electron g factor [ ]                                     -2.00231930436220E+00
 Proton mass [kg]                                           1.67262163700000E-27
 Fine-structure constant                                    7.29735253760000E-03
 Rydberg constant [1/m]                                     1.09737315685270E+07
 Avogadro constant [1/mol]                                  6.02214179000000E+23
 Boltzmann constant [J/K]                                   1.38065040000000E-23
 Atomic mass unit [kg]                                      1.66053878200000E-27
 Bohr radius [m]                                            5.29177208590000E-11

 *** Conversion factors ***

 [u] -> [a.u.]                                              1.82288848426455E+03
 [Angstrom] -> [Bohr] = [a.u.]                              1.88972613288564E+00
 [a.u.] = [Bohr] -> [Angstrom]                              5.29177208590000E-01
 [a.u.] -> [s]                                              2.41888432650478E-17
 [a.u.] -> [fs]                                             2.41888432650478E-02
 [a.u.] -> [J]                                              4.35974393937059E-18
 [a.u.] -> [N]                                              8.23872205491840E-08
 [a.u.] -> [K]                                              3.15774647902944E+05
 [a.u.] -> [kJ/mol]                                         2.62549961709828E+03
 [a.u.] -> [kcal/mol]                                       6.27509468713739E+02
 [a.u.] -> [Pa]                                             2.94210107994716E+13
 [a.u.] -> [bar]                                            2.94210107994716E+08
 [a.u.] -> [atm]                                            2.90362800883016E+08
 [a.u.] -> [eV]                                             2.72113838565563E+01
 [a.u.] -> [Hz]                                             6.57968392072181E+15
 [a.u.] -> [1/cm] (wave numbers)                            2.19474631370540E+05
 [a.u./Bohr**2] -> [1/cm]                                   5.14048714338585E+03
 

 CELL_TOP| Volume [angstrom^3]:                                     27000.000000
 CELL_TOP| Vector a [angstrom    30.000     0.000     0.000   |a| =    30.000000
 CELL_TOP| Vector b [angstrom     0.000    30.000     0.000   |b| =    30.000000
 CELL_TOP| Vector c [angstrom     0.000     0.000    30.000   |c| =    30.000000
 CELL_TOP| Angle (b,c), alpha [degree]:                                90.000000
 CELL_TOP| Angle (a,c), beta  [degree]:                                90.000000
 CELL_TOP| Angle (a,b), gamma [degree]:                                90.000000
 CELL_TOP| Numerically orthorhombic:                                         YES
 CELL_TOP| Periodicity                                                      NONE

 GENERATE|  Preliminary Number of Bonds generated:                             0
 GENERATE|  Achieved consistency in connectivity generation.

 CELL| Volume [angstrom^3]:                                         27000.000000
 CELL| Vector a [angstrom]:      30.000     0.000     0.000   |a| =    30.000000
 CELL| Vector b [angstrom]:       0.000    30.000     0.000   |b| =    30.000000
 CELL| Vector c [angstrom]:       0.000     0.000    30.000   |c| =    30.000000
 CELL| Angle (b,c), alpha [degree]:                                    90.000000
 CELL| Angle (a,c), beta  [degree]:                                    90.000000
 CELL| Angle (a,b), gamma [degree]:                                    90.000000
 CELL| Numerically orthorhombic:                                             YES
 CELL| Periodicity                                                          NONE

 CELL_REF| Volume [angstrom^3]:                                     27000.000000
 CELL_REF| Vector a [angstrom    30.000     0.000     0.000   |a| =    30.000000
 CELL_REF| Vector b [angstrom     0.000    30.000     0.000   |b| =    30.000000
 CELL_REF| Vector c [angstrom     0.000     0.000    30.000   |c| =    30.000000
 CELL_REF| Angle (b,c), alpha [degree]:                                90.000000
 CELL_REF| Angle (a,c), beta  [degree]:                                90.000000
 CELL_REF| Angle (a,b), gamma [degree]:                                90.000000
 CELL_REF| Numerically orthorhombic:                                         YES
 CELL_REF| Periodicity                                                      NONE

 *******************************************************************************
 *******************************************************************************
 **                                                                           **
 **     #####                         ##              ##                      **
 **    ##   ##            ##          ##              ##                      **
 **   ##     ##                       ##            ######                    **
 **   ##     ##  ##   ##  ##   #####  ##  ##   ####   ##    #####    #####    **
 **   ##     ##  ##   ##  ##  ##      ## ##   ##      ##   ##   ##  ##   ##   **
 **   ##  ## ##  ##   ##  ##  ##      ####     ###    ##   ######   ######    **
 **    ##  ###   ##   ##  ##  ##      ## ##      ##   ##   ##       ##        **
 **     #######   #####   ##   #####  ##  ##  ####    ##    #####   ##        **
 **           ##                                                    ##        **
 **                                                                           **
 **                                                ... make the atoms dance   **
 **                                                                           **
 **            Copyright (C) by CP2K developers group (2000-2025)             **
 **                      J. Chem. Phys. 152, 194103 (2020)                    **
 **                                                                           **
 *******************************************************************************

 DFT| Spin restricted Kohn-Sham (RKS) calculation                            RKS
 DFT| Multiplicity                                                             1
 DFT| Number of spin states                                                    1
 DFT| Charge                                                                   0
 DFT| Self-interaction correction (SIC)                                       NO
 DFT| Cutoffs: density                                              1.000000E-10
 DFT|          gradient                                             1.000000E-10
 DFT|          tau                                                  1.000000E-10
 DFT|          cutoff_smoothing_range                               0.000000E+00
 DFT| XC density smoothing                                                  NONE
 DFT| XC derivatives                                                          PW

 FUNCTIONAL| PBE:
 FUNCTIONAL| J.P.Perdew, K.Burke, M.Ernzerhof, Phys. Rev. Letter, vol. 77, n 18,
 FUNCTIONAL|  pp. 3865-3868, (1996)sx=0.750sc=1.000{spin unpolarized}           


 QS| Method:                                                                GAPW
 QS| Density plane wave grid type                        NON-SPHERICAL FULLSPACE
 QS| Number of grid levels:                                                    4
 QS| Density cutoff [a.u.]:                                                250.0
 QS| Multi grid cutoff [a.u.]: 1) grid level                               250.0
 QS|                           2) grid level                                83.3
 QS|                           3) grid level                                27.8
 QS|                           4) grid level                                 9.3
 QS| Grid level progression factor:                                          3.0
 QS| Relative density cutoff [a.u.]:                                        50.0
 QS| Interaction thresholds: eps_pgf_orb:                                1.0E-12
 QS|                         eps_filter_matrix:                          0.0E+00
 QS|                         eps_core_charge:                            1.0E-14
 QS|                         eps_rho_gspace:                             1.0E-12
 QS|                         eps_rho_rspace:                             1.0E-12
 QS|                         eps_gvg_rspace:                             1.0E-06
 QS|                         eps_ppl:                                    1.0E-02
 QS|                         eps_ppnl:                                   1.0E-08
 QS| GAPW|      One center basis from orbital basis primitives
 QS| GAPW|                   eps_fit:                                    1.0E-04
 QS| GAPW|                   eps_iso:                                    1.0E-12
 QS| GAPW|                   eps_svd:                                    1.0E-08
 QS| GAPW|                   eps_cpc:                                    1.0E-12
 QS| GAPW|   atom-r-grid: quadrature:                                     GC_LOG
 QS| GAPW|      atom-s-grid:  max l :                                          6
 QS| GAPW|      max_l_rho0 :                                                   2


 ATOMIC KIND INFORMATION

  1. Atomic kind: C                                     Number of atoms:       2

     Orbital Basis Set                                        aug-DZVP-MOLOPT-ae

       Number of orbital shell sets:                                           2
       Number of orbital shells:                                              10
       Number of primitive Cartesian functions:                               13
       Number of Cartesian basis functions:                                   35
       Number of spherical basis functions:                                   30
       Norm type:                                                              2

       Normalised Cartesian orbitals:

                        Set   Shell   Orbital            Exponent    Coefficient

                          1       1    2px               0.050000       0.000000
                                                         0.096935       0.005344
                                                         0.300899       0.144116
                                                         0.937529       0.673511
                                                         4.145546       1.425967
                          1       1    2py               0.050000       0.000000
                                                         0.096935       0.005344
                                                         0.300899       0.144116
                                                         0.937529       0.673511
                                                         4.145546       1.425967
                          1       1    2pz               0.050000       0.000000
                                                         0.096935       0.005344
                                                         0.300899       0.144116
                                                         0.937529       0.673511
                                                         4.145546       1.425967

                          1       2    3px               0.050000       0.000000
                                                         0.096935       0.066903
                                                         0.300899       0.082631
                                                         0.937529      -0.414500
                                                         4.145546      -0.833488
                          1       2    3py               0.050000       0.000000
                                                         0.096935       0.066903
                                                         0.300899       0.082631
                                                         0.937529      -0.414500
                                                         4.145546      -0.833488
                          1       2    3pz               0.050000       0.000000
                                                         0.096935       0.066903
                                                         0.300899       0.082631
                                                         0.937529      -0.414500
                                                         4.145546      -0.833488

                          1       3    4px               0.050000       0.052477
                                                         0.096935      -0.149600
                                                         0.300899      -0.031452
                                                         0.937529       0.106528
                                                         4.145546       0.000000
                          1       3    4py               0.050000       0.052477
                                                         0.096935      -0.149600
                                                         0.300899      -0.031452
                                                         0.937529       0.106528
                                                         4.145546       0.000000
                          1       3    4pz               0.050000       0.052477
                                                         0.096935      -0.149600
                                                         0.300899      -0.031452
                                                         0.937529       0.106528
                                                         4.145546       0.000000

                          1       4    3dx2              0.050000       0.000000
                                                         0.096935       0.001258
                                                         0.300899       0.105504
                                                         0.937529       0.830801
                                                         4.145546       0.718979
                          1       4    3dxy              0.050000       0.000000
                                                         0.096935       0.002179
                                                         0.300899       0.182739
                                                         0.937529       1.438990
                                                         4.145546       1.245309
                          1       4    3dxz              0.050000       0.000000
                                                         0.096935       0.002179
                                                         0.300899       0.182739
                                                         0.937529       1.438990
                                                         4.145546       1.245309
                          1       4    3dy2              0.050000       0.000000
                                                         0.096935       0.001258
                                                         0.300899       0.105504
                                                         0.937529       0.830801
                                                         4.145546       0.718979
                          1       4    3dyz              0.050000       0.000000
                                                         0.096935       0.002179
                                                         0.300899       0.182739
                                                         0.937529       1.438990
                                                         4.145546       1.245309
                          1       4    3dz2              0.050000       0.000000
                                                         0.096935       0.001258
                                                         0.300899       0.105504
                                                         0.937529       0.830801
                                                         4.145546       0.718979

                          1       5    4dx2              0.050000      -0.011665
                                                         0.096935       0.057456
                                                         0.300899      -0.258169
                                                         0.937529       0.000000
                                                         4.145546       0.000000
                          1       5    4dxy              0.050000      -0.020204
                                                         0.096935       0.099516
                                                         0.300899      -0.447162
                                                         0.937529       0.000000
                                                         4.145546       0.000000
                          1       5    4dxz              0.050000      -0.020204
                                                         0.096935       0.099516
                                                         0.300899      -0.447162
                                                         0.937529       0.000000
                                                         4.145546       0.000000
                          1       5    4dy2              0.050000      -0.011665
                                                         0.096935       0.057456
                                                         0.300899      -0.258169
                                                         0.937529       0.000000
                                                         4.145546       0.000000
                          1       5    4dyz              0.050000      -0.020204
                                                         0.096935       0.099516
                                                         0.300899      -0.447162
                                                         0.937529       0.000000
                                                         4.145546       0.000000
                          1       5    4dz2              0.050000      -0.011665
                                                         0.096935       0.057456
                                                         0.300899      -0.258169
                                                         0.937529       0.000000
                                                         4.145546       0.000000

                          1       6    4fx3              0.050000      -0.000180
                                                         0.096935       0.008160
                                                         0.300899       0.004002
                                                         0.937529       0.000000
                                                         4.145546       0.000000
                          1       6    4fx2y             0.050000      -0.000402
                                                         0.096935       0.018246
                                                         0.300899       0.008949
                                                         0.937529       0.000000
                                                         4.145546       0.000000
                          1       6    4fx2z             0.050000      -0.000402
                                                         0.096935       0.018246
                                                         0.300899       0.008949
                                                         0.937529       0.000000
                                                         4.145546       0.000000
                          1       6    4fxy2             0.050000      -0.000402
                                                         0.096935       0.018246
                                                         0.300899       0.008949
                                                         0.937529       0.000000
                                                         4.145546       0.000000
                          1       6    4fxyz             0.050000      -0.000696
                                                         0.096935       0.031603
                                                         0.300899       0.015500
                                                         0.937529       0.000000
                                                         4.145546       0.000000
                          1       6    4fxz2             0.050000      -0.000402
                                                         0.096935       0.018246
                                                         0.300899       0.008949
                                                         0.937529       0.000000
                                                         4.145546       0.000000
                          1       6    4fy3              0.050000      -0.000180
                                                         0.096935       0.008160
                                                         0.300899       0.004002
                                                         0.937529       0.000000
                                                         4.145546       0.000000
                          1       6    4fy2z             0.050000      -0.000402
                                                         0.096935       0.018246
                                                         0.300899       0.008949
                                                         0.937529       0.000000
                                                         4.145546       0.000000
                          1       6    4fyz2             0.050000      -0.000402
                                                         0.096935       0.018246
                                                         0.300899       0.008949
                                                         0.937529       0.000000
                                                         4.145546       0.000000
                          1       6    4fz3              0.050000      -0.000180
                                                         0.096935       0.008160
                                                         0.300899       0.004002
                                                         0.937529       0.000000
                                                         4.145546       0.000000

                          2       1    1s                0.060000       0.000000
                                                         0.161278       0.024253
                                                         0.523772      -0.029268
                                                         3.176528       0.666384
                                                        10.501907       2.110671
                                                        40.805234       2.242010
                                                       186.270922       1.801845
                                                      1238.394264      -0.490536

                          2       2    2s                0.060000       0.000000
                                                         0.161278       0.080328
                                                         0.523772       0.279468
                                                         3.176528      -0.079506
                                                        10.501907      -0.033488
                                                        40.805234       0.350132
                                                       186.270922      -0.108171
                                                      1238.394264       0.147138

                          2       3    3s                0.060000       0.000000
                                                         0.161278       0.225687
                                                         0.523772      -0.382710
                                                         3.176528      -0.308205
                                                        10.501907      -0.974990
                                                        40.805234      -2.174132
                                                       186.270922       1.755878
                                                      1238.394264     -12.484315

                          2       4    4s                0.060000      -0.055653
                                                         0.161278      -0.019607
                                                         0.523772       0.500289
                                                         3.176528       0.067234
                                                        10.501907       0.000000
                                                        40.805234       0.000000
                                                       186.270922       0.000000
                                                      1238.394264       0.000000

     RI Auxiliary Basis Set             RI_aug-DZVP-MOLOPT-ae_N_RI_060_s_p_d_f_g

       Number of orbital shell sets:                                          18
       Number of orbital shells:                                              18
       Number of primitive Cartesian functions:                               18
       Number of Cartesian basis functions:                                   75
       Number of spherical basis functions:                                   60
       Norm type:                                                              2

       Normalised Cartesian orbitals:

                        Set   Shell   Orbital            Exponent    Coefficient

                          1       1    1s                0.139029       0.162270

                          2       1   13dx2              0.260720       0.156572
                          2       1   13dxy              0.260720       0.271190
                          2       1   13dxz              0.260720       0.271190
                          2       1   13dy2              0.260720       0.156572
                          2       1   13dyz              0.260720       0.271190
                          2       1   13dz2              0.260720       0.156572

                          3       1    8px               0.263737       0.269404
                          3       1    8py               0.263737       0.269404
                          3       1    8pz               0.263737       0.269404

                          4       1   16fx3              0.295019       0.094432
                          4       1   16fx2y             0.295019       0.211156
                          4       1   16fx2z             0.295019       0.211156
                          4       1   16fxy2             0.295019       0.211156
                          4       1   16fxyz             0.295019       0.365732
                          4       1   16fxz2             0.295019       0.211156
                          4       1   16fy3              0.295019       0.094432
                          4       1   16fy2z             0.295019       0.211156
                          4       1   16fyz2             0.295019       0.211156
                          4       1   16fz3              0.295019       0.094432

                          5       1    2s                0.350935       0.324960

                          6       1    9px               0.711576       0.931572
                          6       1    9py               0.711576       0.931572
                          6       1    9pz               0.711576       0.931572

                          7       1   14dx2              0.722037       0.930870
                          7       1   14dxy              0.722037       1.612314
                          7       1   14dxz              0.722037       1.612314
                          7       1   14dy2              0.722037       0.930870
                          7       1   14dyz              0.722037       1.612314
                          7       1   14dz2              0.722037       0.930870

                          8       1   18gx4              0.735195       0.477576
                          8       1   18gx3y             0.735195       1.263547
                          8       1   18gx3z             0.735195       1.263547
                          8       1   18gx2y2            0.735195       1.631232
                          8       1   18gx2yz            0.735195       2.825377
                          8       1   18gx2z2            0.735195       1.631232
                          8       1   18gxy3             0.735195       1.263547
                          8       1   18gxy2z            0.735195       2.825377
                          8       1   18gxyz2            0.735195       2.825377
                          8       1   18gxz3             0.735195       1.263547
                          8       1   18gy4              0.735195       0.477576
                          8       1   18gy3z             0.735195       1.263547
                          8       1   18gy2z2            0.735195       1.631232
                          8       1   18gyz3             0.735195       1.263547
                          8       1   18gz4              0.735195       0.477576

                          9       1    3s                1.027105       0.727145

                         10       1   17fx3              1.228639       2.339694
                         10       1   17fx2y             1.228639       5.231715
                         10       1   17fx2z             1.228639       5.231715
                         10       1   17fxy2             1.228639       5.231715
                         10       1   17fxyz             1.228639       9.061596
                         10       1   17fxz2             1.228639       5.231715
                         10       1   17fy3              1.228639       2.339694
                         10       1   17fy2z             1.228639       5.231715
                         10       1   17fyz2             1.228639       5.231715
                         10       1   17fz3              1.228639       2.339694

                         11       1   10px               1.813548       2.999863
                         11       1   10py               1.813548       2.999863
                         11       1   10pz               1.813548       2.999863

                         12       1   15dx2              2.060642       5.833296
                         12       1   15dxy              2.060642      10.103564
                         12       1   15dxz              2.060642      10.103564
                         12       1   15dy2              2.060642       5.833296
                         12       1   15dyz              2.060642      10.103564
                         12       1   15dz2              2.060642       5.833296

                         13       1    4s                3.115108       1.671148

                         14       1   11px               5.572228      12.203269
                         14       1   11py               5.572228      12.203269
                         14       1   11pz               5.572228      12.203269

                         15       1    5s                9.292692       3.793292

                         16       1   12px              16.974300      49.111129
                         16       1   12py              16.974300      49.111129
                         16       1   12pz              16.974300      49.111129

                         17       1    6s               27.662549       8.596650

                         18       1    7s               82.345042      19.482208

       Atomic covalent radius [Angstrom]:                                  0.770

       Atomic van der Waals radius [Angstrom]:                             1.700

     The atoms of this atomic kind are PAW atoms (GAPW):
       Hard Gaussian function radius:                                      1.512
       Rho0 radius:                                                        1.512
       Maximum GTO radius used for PAW projector construction:            24.566

     GAPW Soft Basis Set                                 aug-DZVP-MOLOPT-ae_soft

       Number of orbital shell sets:                                           2
       Number of orbital shells:                                              10
       Number of primitive Cartesian functions:                                9
       Number of Cartesian basis functions:                                   35
       Number of spherical basis functions:                                   30
       Norm type:                                                              2

       Normalised Cartesian orbitals:

                        Set   Shell   Orbital            Exponent    Coefficient

                          1       1    2px               0.050000       0.000000
                                                         0.096935       0.005344
                                                         0.300899       0.144116
                                                         0.937529       0.673511
                                                         4.145546       1.425967
                          1       1    2py               0.050000       0.000000
                                                         0.096935       0.005344
                                                         0.300899       0.144116
                                                         0.937529       0.673511
                                                         4.145546       1.425967
                          1       1    2pz               0.050000       0.000000
                                                         0.096935       0.005344
                                                         0.300899       0.144116
                                                         0.937529       0.673511
                                                         4.145546       1.425967

                          1       2    3px               0.050000       0.000000
                                                         0.096935       0.066903
                                                         0.300899       0.082631
                                                         0.937529      -0.414500
                                                         4.145546      -0.833488
                          1       2    3py               0.050000       0.000000
                                                         0.096935       0.066903
                                                         0.300899       0.082631
                                                         0.937529      -0.414500
                                                         4.145546      -0.833488
                          1       2    3pz               0.050000       0.000000
                                                         0.096935       0.066903
                                                         0.300899       0.082631
                                                         0.937529      -0.414500
                                                         4.145546      -0.833488

                          1       3    4px               0.050000       0.052477
                                                         0.096935      -0.149600
                                                         0.300899      -0.031452
                                                         0.937529       0.106528
                                                         4.145546       0.000000
                          1       3    4py               0.050000       0.052477
                                                         0.096935      -0.149600
                                                         0.300899      -0.031452
                                                         0.937529       0.106528
                                                         4.145546       0.000000
                          1       3    4pz               0.050000       0.052477
                                                         0.096935      -0.149600
                                                         0.300899      -0.031452
                                                         0.937529       0.106528
                                                         4.145546       0.000000

                          1       4    3dx2              0.050000       0.000000
                                                         0.096935       0.001258
                                                         0.300899       0.105504
                                                         0.937529       0.830801
                                                         4.145546       0.718979
                          1       4    3dxy              0.050000       0.000000
                                                         0.096935       0.002179
                                                         0.300899       0.182739
                                                         0.937529       1.438990
                                                         4.145546       1.245309
                          1       4    3dxz              0.050000       0.000000
                                                         0.096935       0.002179
                                                         0.300899       0.182739
                                                         0.937529       1.438990
                                                         4.145546       1.245309
                          1       4    3dy2              0.050000       0.000000
                                                         0.096935       0.001258
                                                         0.300899       0.105504
                                                         0.937529       0.830801
                                                         4.145546       0.718979
                          1       4    3dyz              0.050000       0.000000
                                                         0.096935       0.002179
                                                         0.300899       0.182739
                                                         0.937529       1.438990
                                                         4.145546       1.245309
                          1       4    3dz2              0.050000       0.000000
                                                         0.096935       0.001258
                                                         0.300899       0.105504
                                                         0.937529       0.830801
                                                         4.145546       0.718979

                          1       5    4dx2              0.050000      -0.011665
                                                         0.096935       0.057456
                                                         0.300899      -0.258169
                                                         0.937529       0.000000
                                                         4.145546       0.000000
                          1       5    4dxy              0.050000      -0.020204
                                                         0.096935       0.099516
                                                         0.300899      -0.447162
                                                         0.937529       0.000000
                                                         4.145546       0.000000
                          1       5    4dxz              0.050000      -0.020204
                                                         0.096935       0.099516
                                                         0.300899      -0.447162
                                                         0.937529       0.000000
                                                         4.145546       0.000000
                          1       5    4dy2              0.050000      -0.011665
                                                         0.096935       0.057456
                                                         0.300899      -0.258169
                                                         0.937529       0.000000
                                                         4.145546       0.000000
                          1       5    4dyz              0.050000      -0.020204
                                                         0.096935       0.099516
                                                         0.300899      -0.447162
                                                         0.937529       0.000000
                                                         4.145546       0.000000
                          1       5    4dz2              0.050000      -0.011665
                                                         0.096935       0.057456
                                                         0.300899      -0.258169
                                                         0.937529       0.000000
                                                         4.145546       0.000000

                          1       6    4fx3              0.050000      -0.000180
                                                         0.096935       0.008160
                                                         0.300899       0.004002
                                                         0.937529       0.000000
                                                         4.145546       0.000000
                          1       6    4fx2y             0.050000      -0.000402
                                                         0.096935       0.018246
                                                         0.300899       0.008949
                                                         0.937529       0.000000
                                                         4.145546       0.000000
                          1       6    4fx2z             0.050000      -0.000402
                                                         0.096935       0.018246
                                                         0.300899       0.008949
                                                         0.937529       0.000000
                                                         4.145546       0.000000
                          1       6    4fxy2             0.050000      -0.000402
                                                         0.096935       0.018246
                                                         0.300899       0.008949
                                                         0.937529       0.000000
                                                         4.145546       0.000000
                          1       6    4fxyz             0.050000      -0.000696
                                                         0.096935       0.031603
                                                         0.300899       0.015500
                                                         0.937529       0.000000
                                                         4.145546       0.000000
                          1       6    4fxz2             0.050000      -0.000402
                                                         0.096935       0.018246
                                                         0.300899       0.008949
                                                         0.937529       0.000000
                                                         4.145546       0.000000
                          1       6    4fy3              0.050000      -0.000180
                                                         0.096935       0.008160
                                                         0.300899       0.004002
                                                         0.937529       0.000000
                                                         4.145546       0.000000
                          1       6    4fy2z             0.050000      -0.000402
                                                         0.096935       0.018246
                                                         0.300899       0.008949
                                                         0.937529       0.000000
                                                         4.145546       0.000000
                          1       6    4fyz2             0.050000      -0.000402
                                                         0.096935       0.018246
                                                         0.300899       0.008949
                                                         0.937529       0.000000
                                                         4.145546       0.000000
                          1       6    4fz3              0.050000      -0.000180
                                                         0.096935       0.008160
                                                         0.300899       0.004002
                                                         0.937529       0.000000
                                                         4.145546       0.000000

                          2       1    1s                0.060000       0.000000
                                                         0.161278       0.024253
                                                         0.523772      -0.029268
                                                         3.176528       0.666384

                          2       2    2s                0.060000       0.000000
                                                         0.161278       0.080328
                                                         0.523772       0.279468
                                                         3.176528      -0.079506

                          2       3    3s                0.060000       0.000000
                                                         0.161278       0.225687
                                                         0.523772      -0.382710
                                                         3.176528      -0.308205

                          2       4    4s                0.060000      -0.055653
                                                         0.161278      -0.019607
                                                         0.523772       0.500289
                                                         3.176528       0.067234

     AE Potential information for                                            ALL

       Description:                                       All-electron potential
                                          Krack, Parrinello, PCCP 2, 2105 (2000)

       Gaussian exponent of the core charge distribution:               4.109048
       Electronic configuration (s p d ...):                           4   2   0


 MOLECULE KIND INFORMATION


 All atoms are their own molecule, skipping detailed information


 TOTAL NUMBERS AND MAXIMUM NUMBERS

  Total number of            - Atomic kinds:                                   1
                             - Atoms:                                          2
                             - Shell sets:                                     4
                             - Shells:                                        20
                             - Primitive Cartesian functions:                 26
                             - Cartesian basis functions:                     70
                             - Spherical basis functions:                     60

  Maximum angular momentum of the orbital basis functions:                     3


 MODULE QUICKSTEP: ATOMIC COORDINATES IN ANGSTROM

   Atom Kind Element         X             Y             Z       Z(eff)     Mass
      1    1 C     6     15.620000     15.000000     15.000000   6.0000  12.0107
      2    1 C     6     14.380000     15.000000     15.000000   6.0000  12.0107



 SCF PARAMETERS         Density guess:                                    ATOMIC
                        --------------------------------------------------------
                        max_scf:                                             500
                        max_scf_history:                                       0
                        max_diis:                                              4
                        --------------------------------------------------------
                        eps_scf:                                        1.00E-06
                        eps_scf_history:                                0.00E+00
                        eps_diis:                                       1.00E-01
                        eps_eigval:                                     1.00E-05
                        --------------------------------------------------------
                        level_shift [a.u.]:                             0.000000
                        added MOs                                        54    0
                        --------------------------------------------------------
                        Mixing method:                            BROYDEN_MIXING
                                                charge density mixing in g-space
                        --------------------------------------------------------
                        No outer SCF

 PW_GRID| Information for grid number                                          1
 PW_GRID| Grid distributed over                                    48 processors
 PW_GRID| Real space group dimensions                                    48    1
 PW_GRID| the grid is blocked:                                                NO
 PW_GRID| Cutoff [a.u.]                                                    250.0
 PW_GRID| spherical cutoff:                                                   NO
 PW_GRID|   Bounds   1           -202     202                Points:         405
 PW_GRID|   Bounds   2           -202     202                Points:         405
 PW_GRID|   Bounds   3           -202     202                Points:         405
 PW_GRID| Volume element (a.u.^3)  0.2743E-02     Volume (a.u.^3)    182205.0337
 PW_GRID| Grid span                                                    FULLSPACE
 PW_GRID|   Distribution                         Average         Max         Min
 PW_GRID|   G-Vectors                          1383960.9     1384290     1383885
 PW_GRID|   G-Rays                                3417.2        3418        3417
 PW_GRID|   Real Space Points                  1383960.9     1476225     1312200

 PW_GRID| Information for grid number                                          2
 PW_GRID| Number of the reference grid                                         1
 PW_GRID| Grid distributed over                                    48 processors
 PW_GRID| Real space group dimensions                                    48    1
 PW_GRID| the grid is blocked:                                                NO
 PW_GRID| Cutoff [a.u.]                                                     83.3
 PW_GRID| spherical cutoff:                                                   NO
 PW_GRID|   Bounds   1           -120     119                Points:         240
 PW_GRID|   Bounds   2           -120     119                Points:         240
 PW_GRID|   Bounds   3           -120     119                Points:         240
 PW_GRID| Volume element (a.u.^3)  0.1318E-01     Volume (a.u.^3)    182205.0337
 PW_GRID| Grid span                                                    FULLSPACE
 PW_GRID|   Distribution                         Average         Max         Min
 PW_GRID|   G-Vectors                           288000.0      288720      287520
 PW_GRID|   G-Rays                                1200.0        1203        1198
 PW_GRID|   Real Space Points                   288000.0      288000      288000

 PW_GRID| Information for grid number                                          3
 PW_GRID| Number of the reference grid                                         1
 PW_GRID| Grid distributed over                                    48 processors
 PW_GRID| Real space group dimensions                                    48    1
 PW_GRID| the grid is blocked:                                                NO
 PW_GRID| Cutoff [a.u.]                                                     27.8
 PW_GRID| spherical cutoff:                                                   NO
 PW_GRID|   Bounds   1            -67      67                Points:         135
 PW_GRID|   Bounds   2            -67      67                Points:         135
 PW_GRID|   Bounds   3            -67      67                Points:         135
 PW_GRID| Volume element (a.u.^3)  0.7406E-01     Volume (a.u.^3)    182205.0337
 PW_GRID| Grid span                                                    FULLSPACE
 PW_GRID|   Distribution                         Average         Max         Min
 PW_GRID|   G-Vectors                            51257.8       51570       51030
 PW_GRID|   G-Rays                                 379.7         382         378
 PW_GRID|   Real Space Points                    51257.8       54675       36450

 PW_GRID| Information for grid number                                          4
 PW_GRID| Number of the reference grid                                         1
 PW_GRID| Grid distributed over                                    48 processors
 PW_GRID| Real space group dimensions                                    48    1
 PW_GRID| the grid is blocked:                                                NO
 PW_GRID| Cutoff [a.u.]                                                      9.3
 PW_GRID| spherical cutoff:                                                   NO
 PW_GRID|   Bounds   1            -40      39                Points:          80
 PW_GRID|   Bounds   2            -40      39                Points:          80
 PW_GRID|   Bounds   3            -40      39                Points:          80
 PW_GRID| Volume element (a.u.^3)  0.3559         Volume (a.u.^3)    182205.0337
 PW_GRID| Grid span                                                    FULLSPACE
 PW_GRID|   Distribution                         Average         Max         Min
 PW_GRID|   G-Vectors                            10666.7       10800       10560
 PW_GRID|   G-Rays                                 133.3         135         132
 PW_GRID|   Real Space Points                    10666.7       12800        6400

 POISSON| Solver                                                         WAVELET
 POISSON| Wavelet| Scaling function                                           40
 POISSON| Periodicity                                                       NONE

 RS_GRID| Information for grid number                                          1
 RS_GRID|   Bounds   1           -202     202                Points:         405
 RS_GRID|   Bounds   2           -202     202                Points:         405
 RS_GRID|   Bounds   3           -202     202                Points:         405
 RS_GRID| Real space distribution over                                  3 groups
 RS_GRID| Real space distribution along direction                              1
 RS_GRID| Border size                                                         35
 RS_GRID| Real space distribution over                                  4 groups
 RS_GRID| Real space distribution along direction                              2
 RS_GRID| Border size                                                         35
 RS_GRID| Real space distribution over                                  4 groups
 RS_GRID| Real space distribution along direction                              3
 RS_GRID| Border size                                                         35
 RS_GRID|   Distribution                         Average         Max         Min
 RS_GRID|   Planes                                 205.0         205         205
 RS_GRID|   Distribution                         Average         Max         Min
 RS_GRID|   Planes                                 171.2         172         171
 RS_GRID|   Distribution                         Average         Max         Min
 RS_GRID|   Planes                                 171.2         172         171

 RS_GRID| Information for grid number                                          2
 RS_GRID|   Bounds   1           -120     119                Points:         240
 RS_GRID|   Bounds   2           -120     119                Points:         240
 RS_GRID|   Bounds   3           -120     119                Points:         240
 RS_GRID| Real space distribution over                                  3 groups
 RS_GRID| Real space distribution along direction                              1
 RS_GRID| Border size                                                         38
 RS_GRID| Real space distribution over                                  4 groups
 RS_GRID| Real space distribution along direction                              2
 RS_GRID| Border size                                                         38
 RS_GRID| Real space distribution over                                  4 groups
 RS_GRID| Real space distribution along direction                              3
 RS_GRID| Border size                                                         38
 RS_GRID|   Distribution                         Average         Max         Min
 RS_GRID|   Planes                                 156.0         156         156
 RS_GRID|   Distribution                         Average         Max         Min
 RS_GRID|   Planes                                 136.0         136         136
 RS_GRID|   Distribution                         Average         Max         Min
 RS_GRID|   Planes                                 136.0         136         136

 RS_GRID| Information for grid number                                          3
 RS_GRID|   Bounds   1            -67      67                Points:         135
 RS_GRID|   Bounds   2            -67      67                Points:         135
 RS_GRID|   Bounds   3            -67      67                Points:         135
 RS_GRID| Real space fully replicated
 RS_GRID| Group size                                                           1

 RS_GRID| Information for grid number                                          4
 RS_GRID|   Bounds   1            -40      39                Points:          80
 RS_GRID|   Bounds   2            -40      39                Points:          80
 RS_GRID|   Bounds   3            -40      39                Points:          80
 RS_GRID| Real space fully replicated
 RS_GRID| Group size                                                           1

  HFX_INFO| Replica ID:                                                        1
  HFX_INFO| FRACTION:                                               0.2500000000
  HFX_INFO| Interaction Potential:                                       COULOMB
  HFX_INFO| EPS_SCHWARZ:                                                 1.0E-10
  HFX_INFO| EPS_SCHWARZ_FORCES                                           1.0E-08
  HFX_INFO| EPS_STORAGE_SCALING:                                         1.0E+00
  HFX_INFO| NBINS:                                                            64
  HFX_INFO| BLOCK_SIZE:                                                        1
  HFX_INFO| Number of periodic shells considered:                           NONE
  HFX_INFO| Number of periodic cells considered:                            NONE

 
 RI-RPA| using GPW style
 

 OVERLAP MATRIX CONDITION NUMBER
 1-Norm Condition Number (Estimate)
   CN : |A|*|A^-1|:  5.324E+000 *  8.956E+002   = 4.769E+003  Log(1-CN):  3.6784
 1-Norm and 2-Norm Condition Numbers using Diagonalization
   CN : |A|*|A^-1|:  5.324E+000 *  8.956E+002   = 4.769E+003  Log(1-CN):  3.6784
   CN : max/min ev:  3.467E+000 /  1.709E-003   = 2.029E+003  Log(2-CN):  3.3072

 Number of electrons:                                                         12
 Number of occupied orbitals:                                                  6
 Number of molecular orbitals:                                                60

 Number of orbital functions:                                                 60
 Number of independent orbital functions:                                     60

 Extrapolation method: initial_guess

 Atomic guess: The first density matrix is obtained in terms of atomic orbitals
               and electronic configurations assigned to each atomic kind

 Guess for atomic kind: C

 Electronic structure
    Total number of core electrons                                          0.00
    Total number of valence electrons                                       6.00
    Total number of electrons                                               6.00
    Multiplicity                                                   not specified
    S      2.00  2.00
    P      2.00


 *******************************************************************************
                  Iteration          Convergence                     Energy [au]
 *******************************************************************************
                          1        0.133902                     -37.363061759844
                          2        0.102325                     -37.368472442706
                          3        0.860737E-03                 -37.376215693871
                          4        0.849047E-04                 -37.376216293501
                          5        0.219397E-06                 -37.376216298714

 Energy components [Hartree]           Total Energy ::          -37.376216298714
                                        Band Energy ::          -21.245708131868
                                     Kinetic Energy ::           37.464666877769
                                   Potential Energy ::          -74.840883176484
                                      Virial (-V/T) ::            1.997639093406
                                        Core Energy ::          -50.271057779086
                                          XC Energy ::           -4.736056292831
                                     Coulomb Energy ::           17.630897773203

 Orbital energies  State     L     Occupation   Energy[a.u.]          Energy[eV]

                       1     0          2.000      -9.941022         -270.508975
                       2     0          2.000      -0.490185          -13.338601

                       1     1          2.000      -0.191647           -5.214984


 Total Electron Density at R=0:                                       116.283880
 Re-scaling the density matrix to get the right number of electrons
                  # Electrons              Trace(P)               Scaling factor
                           12                12.000                        1.000


 SCF WAVEFUNCTION OPTIMIZATION

  Step     Update method      Time    Convergence         Total energy    Change
  ------------------------------------------------------------------------------

  HFX_MEM_INFO| Est. max. program size before HFX [MiB]:                    1311
  HFX_MEM_INFO| Number of cart. primitive ERI's calculated:            674513758
  HFX_MEM_INFO| Number of sph. ERI's calculated:                         4860000
  HFX_MEM_INFO| Number of sph. ERI's stored in-core:                     4860000
  HFX_MEM_INFO| Number of sph. ERI's stored on disk:                           0
  HFX_MEM_INFO| Number of sph. ERI's calculated on the fly:                    0
  HFX_MEM_INFO| Total memory consumption ERI's RAM [MiB]:                     21
  HFX_MEM_INFO| Whereof max-vals [MiB]:                                        2
  HFX_MEM_INFO| Total compression factor ERI's RAM:                         1.80
  HFX_MEM_INFO| Total memory consumption ERI's disk [MiB]:                     0
  HFX_MEM_INFO| Total compression factor ERI's disk:                        0.00
  HFX_MEM_INFO| Size of density/Fock matrix [MiB]:                             0
  HFX_MEM_INFO| Size of buffers [MiB]:                                        13
  HFX_MEM_INFO| Est. max. program size after HFX  [MiB]:                    1848

     1 NoMix/Diag. 0.10E+00   16.3     1.31515393       -75.9310665379 -7.59E+01
     2 Broy./Diag. 0.10E+00    2.6     0.03786267       -75.1120750673  8.19E-01
     3 Broy./Diag. 0.10E+00    2.7     0.03612222       -74.7722713269  3.40E-01
     4 Broy./Diag. 0.10E+00    2.7     0.11297437       -75.1044644284 -3.32E-01
     5 Broy./Diag. 0.10E+00    2.7     0.03035415       -75.5941547410 -4.90E-01
     6 Broy./Diag. 0.10E+00    2.7     0.00543255       -75.6729189492 -7.88E-02
     7 Broy./Diag. 0.10E+00    2.8     0.00530417       -75.6657737796  7.15E-03
     8 Broy./Diag. 0.10E+00    2.8     0.00091954       -75.6769877144 -1.12E-02
     9 Broy./Diag. 0.10E+00    2.9     0.00183013       -75.6710913973  5.90E-03
    10 Broy./Diag. 0.10E+00    2.9     0.00300336       -75.6795459025 -8.45E-03
    11 Broy./Diag. 0.10E+00    3.0     0.00295092       -75.6968052718 -1.73E-02
    12 Broy./Diag. 0.10E+00    2.9     0.00332821       -75.7153868303 -1.86E-02
    13 Broy./Diag. 0.10E+00    2.9     0.00072513       -75.7284432109 -1.31E-02
    14 Broy./Diag. 0.10E+00    2.9     0.00205284       -75.7188822037  9.56E-03
    15 Broy./Diag. 0.10E+00    2.9     0.00034867       -75.7128604857  6.02E-03
    16 Broy./Diag. 0.10E+00    2.9     0.00027211       -75.7151758074 -2.32E-03
    17 Broy./Diag. 0.10E+00    2.9     0.00070564       -75.7169562185 -1.78E-03
    18 Broy./Diag. 0.10E+00    2.9     0.00105219       -75.7214948996 -4.54E-03
    19 Broy./Diag. 0.10E+00    2.9     0.00013553       -75.7250245881 -3.53E-03
    20 Broy./Diag. 0.10E+00    2.9     0.00020360       -75.7246290513  3.96E-04
    21 Broy./Diag. 0.10E+00    3.0     0.00009516       -75.7239210238  7.08E-04
    22 Broy./Diag. 0.10E+00    2.9     0.00044873       -75.7215842220  2.34E-03
    23 Broy./Diag. 0.10E+00    2.9     0.00014110       -75.7204773987  1.11E-03
    24 Broy./Diag. 0.10E+00    2.9     0.00023403       -75.7217864511 -1.31E-03
    25 Broy./Diag. 0.10E+00    2.9     0.00005883       -75.7224017083 -6.15E-04
    26 Broy./Diag. 0.10E+00    2.9     0.00005303       -75.7221282349  2.73E-04
    27 Broy./Diag. 0.10E+00    2.9     0.00008431       -75.7224064732 -2.78E-04
    28 Broy./Diag. 0.10E+00    2.9     0.00003197       -75.7227349639 -3.28E-04
    29 Broy./Diag. 0.10E+00    2.9     0.00006767       -75.7229907595 -2.56E-04
    30 Broy./Diag. 0.10E+00    2.9     0.00008337       -75.7230493110 -5.86E-05
    31 Broy./Diag. 0.10E+00    2.9     0.00014982       -75.7226397054  4.10E-04
    32 Broy./Diag. 0.10E+00    2.9     0.00006529       -75.7224393694  2.00E-04
    33 Broy./Diag. 0.10E+00    2.9     0.00005158       -75.7225991876 -1.60E-04
    34 Broy./Diag. 0.10E+00    2.9     0.00003622       -75.7225949124  4.28E-06
    35 Broy./Diag. 0.10E+00    3.0     0.00006477       -75.7224729376  1.22E-04
    36 Broy./Diag. 0.10E+00    2.9     0.00005221       -75.7223900566  8.29E-05
    37 Broy./Diag. 0.10E+00    2.9     0.00003994       -75.7223848345  5.22E-06
    38 Broy./Diag. 0.10E+00    2.9     0.00002993       -75.7223827533  2.08E-06
    39 Broy./Diag. 0.10E+00    2.9     0.00003940       -75.7224276131 -4.49E-05
    40 Broy./Diag. 0.10E+00    2.9     0.00003537       -75.7224575011 -2.99E-05
    41 Broy./Diag. 0.10E+00    2.9     0.00004680       -75.7224652106 -7.71E-06
    42 Broy./Diag. 0.10E+00    3.0     0.00003228       -75.7224360972  2.91E-05
    43 Broy./Diag. 0.10E+00    2.9     0.00002855       -75.7223972163  3.89E-05
    44 Broy./Diag. 0.10E+00    2.9     0.00003229       -75.7223685568  2.87E-05
    45 Broy./Diag. 0.10E+00    2.9     0.00003691       -75.7224108578 -4.23E-05
    46 Broy./Diag. 0.10E+00    2.9     0.00003120       -75.7224747389 -6.39E-05
    47 Broy./Diag. 0.10E+00    2.9     0.00003061       -75.7224323690  4.24E-05
    48 Broy./Diag. 0.10E+00    2.9     0.00002716       -75.7224045788  2.78E-05
    49 Broy./Diag. 0.10E+00    2.9     0.00004387       -75.7225234229 -1.19E-04
    50 Broy./Diag. 0.10E+00    2.9     0.00004800       -75.7225813318 -5.79E-05
    51 Broy./Diag. 0.10E+00    2.9     0.00005536       -75.7225452752  3.61E-05
    52 Broy./Diag. 0.10E+00    2.9     0.00005434       -75.7225186980  2.66E-05
    53 Broy./Diag. 0.10E+00    2.9     0.00005170       -75.7225156733  3.02E-06
    54 Broy./Diag. 0.10E+00    3.0     0.00005740       -75.7225053020  1.04E-05
    55 Broy./Diag. 0.10E+00    2.9     0.00005688       -75.7224991874  6.11E-06
    56 Broy./Diag. 0.10E+00    3.0     0.00004771       -75.7224994576 -2.70E-07
    57 Broy./Diag. 0.10E+00    2.9     0.00005181       -75.7225032512 -3.79E-06
    58 Broy./Diag. 0.10E+00    2.9     0.00005212       -75.7225190630 -1.58E-05
    59 Broy./Diag. 0.10E+00    2.9     0.00004822       -75.7225279340 -8.87E-06
    60 Broy./Diag. 0.10E+00    2.9     0.00005053       -75.7225243933  3.54E-06
    61 Broy./Diag. 0.10E+00    2.9     0.00004664       -75.7225297762 -5.38E-06
    62 Broy./Diag. 0.10E+00    2.9     0.00004281       -75.7225316526 -1.88E-06
    63 Broy./Diag. 0.10E+00    2.9     0.00004399       -75.7225308570  7.96E-07
    64 Broy./Diag. 0.10E+00    2.9     0.00003895       -75.7225383321 -7.48E-06
    65 Broy./Diag. 0.10E+00    2.9     0.00003132       -75.7225346337  3.70E-06
    66 Broy./Diag. 0.10E+00    2.9     0.00003528       -75.7225227908  1.18E-05
    67 Broy./Diag. 0.10E+00    2.9     0.00003267       -75.7225355470 -1.28E-05
    68 Broy./Diag. 0.10E+00    2.9     0.00003109       -75.7225594329 -2.39E-05
    69 Broy./Diag. 0.10E+00    3.0     0.00003755       -75.7225655753 -6.14E-06
    70 Broy./Diag. 0.10E+00    3.0     0.00003250       -75.7225732833 -7.71E-06
    71 Broy./Diag. 0.10E+00    2.9     0.00003103       -75.7225765026 -3.22E-06
    72 Broy./Diag. 0.10E+00    3.0     0.00002941       -75.7225731490  3.35E-06
    73 Broy./Diag. 0.10E+00    2.9     0.00002465       -75.7225740727 -9.24E-07
    74 Broy./Diag. 0.10E+00    2.9     0.00004496       -75.7225296359  4.44E-05
    75 Broy./Diag. 0.10E+00    2.9     0.00002826       -75.7224214564  1.08E-04
    76 Broy./Diag. 0.10E+00    2.9     0.00001270       -75.7224605060 -3.90E-05
    77 Broy./Diag. 0.10E+00    2.9     0.00002161       -75.7224760155 -1.55E-05
    78 Broy./Diag. 0.10E+00    2.9     0.00006371       -75.7224372063  3.88E-05
    79 Broy./Diag. 0.10E+00    2.9     0.00017043       -75.7224996074 -6.24E-05
    80 Broy./Diag. 0.10E+00    2.9     0.00006723       -75.7225990627 -9.95E-05
    81 Broy./Diag. 0.10E+00    2.9     0.00022009       -75.7225837504  1.53E-05
    82 Broy./Diag. 0.10E+00    2.9     0.00026640       -75.7224235086  1.60E-04
    83 Broy./Diag. 0.10E+00    2.9     0.00023691       -75.7222878485  1.36E-04
    84 Broy./Diag. 0.10E+00    2.9     0.00019844       -75.7224291886 -1.41E-04
    85 Broy./Diag. 0.10E+00    3.0     0.00016194       -75.7227017152 -2.73E-04
    86 Broy./Diag. 0.10E+00    2.9     0.00018086       -75.7228081435 -1.06E-04
    87 Broy./Diag. 0.10E+00    2.9     0.00022267       -75.7228713549 -6.32E-05
    88 Broy./Diag. 0.10E+00    2.9     0.00022739       -75.7228191967  5.22E-05
    89 Broy./Diag. 0.10E+00    2.9     0.00019530       -75.7227053061  1.14E-04
    90 Broy./Diag. 0.10E+00    2.9     0.00021490       -75.7227110685 -5.76E-06
    91 Broy./Diag. 0.10E+00    2.9     0.00019350       -75.7225453958  1.66E-04
    92 Broy./Diag. 0.10E+00    2.9     0.00022784       -75.7226348352 -8.94E-05
    93 Broy./Diag. 0.10E+00    3.0     0.00029347       -75.7226301341  4.70E-06
    94 Broy./Diag. 0.10E+00    2.9     0.00036924       -75.7226417555 -1.16E-05
    95 Broy./Diag. 0.10E+00    2.9     0.00046415       -75.7226935955 -5.18E-05
    96 Broy./Diag. 0.10E+00    2.9     0.00057591       -75.7227534498 -5.99E-05
    97 Broy./Diag. 0.10E+00    2.9     0.00072347       -75.7227867309 -3.33E-05
    98 Broy./Diag. 0.10E+00    2.9     0.00090447       -75.7227290599  5.77E-05
    99 Broy./Diag. 0.10E+00    2.9     0.00113925       -75.7225594535  1.70E-04
   100 Broy./Diag. 0.10E+00    2.9     0.00145407       -75.7224539358  1.06E-04
   101 Broy./Diag. 0.10E+00    3.0     0.00188559       -75.7222587258  1.95E-04
   102 Broy./Diag. 0.10E+00    2.9     0.00239569       -75.7219054842  3.53E-04
   103 Broy./Diag. 0.10E+00    2.9     0.00299369       -75.7216193779  2.86E-04
   104 Broy./Diag. 0.10E+00    2.9     0.00374752       -75.7216266364 -7.26E-06
   105 Broy./Diag. 0.10E+00    2.9     0.00468659       -75.7217810257 -1.54E-04
   106 Broy./Diag. 0.10E+00    2.9     0.00588878       -75.7215091642  2.72E-04
   107 Broy./Diag. 0.10E+00    2.9     0.00732967       -75.7204186765  1.09E-03
   108 Broy./Diag. 0.10E+00    2.9     0.00910929       -75.7189926169  1.43E-03
   109 Broy./Diag. 0.10E+00    2.9     0.01137784       -75.7171466309  1.85E-03
   110 Broy./Diag. 0.10E+00    2.9     0.01403907       -75.7143499767  2.80E-03
   111 Broy./Diag. 0.10E+00    2.9     0.01708564       -75.7104927012  3.86E-03
   112 Broy./Diag. 0.10E+00    2.9     0.02042272       -75.7051341873  5.36E-03
   113 Broy./Diag. 0.10E+00    2.9     0.02375598       -75.6970167660  8.12E-03
   114 Broy./Diag. 0.10E+00    3.0     0.02854969       -75.6854721915  1.15E-02
   115 Broy./Diag. 0.10E+00    3.0     0.03944275       -75.6676965966  1.78E-02
[...]
 *    |             please set the keyword IGNORE_CONVERGENCE_FAILURE.         *
 *  O/|                                                                        *
 * /| |                                                                        *
 * / \                                                            qs_scf.F:611 *
 *******************************************************************************


 ===== Routine Calling Stack ===== 

            3 scf_env_do_scf
            2 qs_energies
            1 CP2K

 *******************************************************************************
 *   ___                                                                       *
 *  /   \                                                                      *
 * [ABORT]                                                                     *
 *  \___/     SCF run NOT converged. To continue the calculation regardless,   *
 *    |             please set the keyword IGNORE_CONVERGENCE_FAILURE.         *
 *  O/|                                                                        *
 * /| |                                                                        *
 * / \                                                            qs_scf.F:611 *
 *******************************************************************************


 ===== Routine Calling Stack ===== 

            3 scf_env_do_scf
            2 qs_energies
            1 CP2K

 *******************************************************************************
 *   ___                                                                       *
 *  /   \                                                                      *
 * [ABORT]                                                                     *
 *  \___/     SCF run NOT converged. To continue the calculation regardless,   *
 *    |             please set the keyword IGNORE_CONVERGENCE_FAILURE.         *
 *  O/|                                                                        *
 * /| |                                                                        *
 * / \                                                            qs_scf.F:611 *
 *******************************************************************************


 ===== Routine Calling Stack ===== 

            3 scf_env_do_scf
            2 qs_energies
            1 CP2K

 *******************************************************************************
 *   ___                                                                       *
 *  /   \                                                                      *
 * [ABORT]                                                                     *
 *  \___/     SCF run NOT converged. To continue the calculation regardless,   *
 *    |             please set the keyword IGNORE_CONVERGENCE_FAILURE.         *
 *  O/|                                                                        *
 * /| |                                                                        *
 * / \                                                            qs_scf.F:611 *
 *******************************************************************************


 ===== Routine Calling Stack ===== 

            3 scf_env_do_scf
            2 qs_energies
            1 CP2K

 *******************************************************************************
 *   ___                                                                       *
 *  /   \                                                                      *
 * [ABORT]                                                                     *
 *  \___/     SCF run NOT converged. To continue the calculation regardless,   *
 *    |             please set the keyword IGNORE_CONVERGENCE_FAILURE.         *
 *  O/|                                                                        *
 * /| |                                                                        *
 * / \                                                            qs_scf.F:611 *
 *******************************************************************************


 ===== Routine Calling Stack ===== 

            3 scf_env_do_scf
            2 qs_energies
            1 CP2K

 *******************************************************************************
 *   ___                                                                       *
 *  /   \                                                                      *
 * [ABORT]                                                                     *
 *  \___/     SCF run NOT converged. To continue the calculation regardless,   *
 *    |             please set the keyword IGNORE_CONVERGENCE_FAILURE.         *
 *  O/|                                                                        *
 * /| |                                                                        *
 * / \                                                            qs_scf.F:611 *
 *******************************************************************************


 ===== Routine Calling Stack ===== 

            3 scf_env_do_scf
            2 qs_energies
            1 CP2K

 *******************************************************************************
 *   ___                                                                       *
 *  /   \                                                                      *
 * [ABORT]                                                                     *
 *  \___/     SCF run NOT converged. To continue the calculation regardless,   *
 *    |             please set the keyword IGNORE_CONVERGENCE_FAILURE.         *
 *  O/|                                                                        *
 * /| |                                                                        *
 * / \                                                            qs_scf.F:611 *
 *******************************************************************************


 ===== Routine Calling Stack ===== 

            3 scf_env_do_scf
            2 qs_energies
            1 CP2K

 *******************************************************************************
 *   ___                                                                       *
 *  /   \                                                                      *
 * [ABORT]                                                                     *
 *  \___/     SCF run NOT converged. To continue the calculation regardless,   *
 *    |             please set the keyword IGNORE_CONVERGENCE_FAILURE.         *
 *  O/|                                                                        *
 * /| |                                                                        *
 * / \                                                            qs_scf.F:611 *
 *******************************************************************************


 ===== Routine Calling Stack ===== 

            3 scf_env_do_scf
            2 qs_energies
            1 CP2K

 *******************************************************************************
 *   ___                                                                       *
 *  /   \                                                                      *
 * [ABORT]                                                                     *
 *  \___/     SCF run NOT converged. To continue the calculation regardless,   *
 *    |             please set the keyword IGNORE_CONVERGENCE_FAILURE.         *
 *  O/|                                                                        *
 * /| |                                                                        *
 * / \                                                            qs_scf.F:611 *
 *******************************************************************************


 ===== Routine Calling Stack ===== 

            3 scf_env_do_scf
            2 qs_energies
            1 CP2K

 *******************************************************************************
 *   ___                                                                       *
 *  /   \                                                                      *
 * [ABORT]                                                                     *
 *  \___/     SCF run NOT converged. To continue the calculation regardless,   *
 *    |             please set the keyword IGNORE_CONVERGENCE_FAILURE.         *
 *  O/|                                                                        *
 * /| |                                                                        *
 * / \                                                            qs_scf.F:611 *
 *******************************************************************************


 ===== Routine Calling Stack ===== 

            3 scf_env_do_scf
            2 qs_energies
            1 CP2K

 *******************************************************************************
 *   ___                                                                       *
 *  /   \                                                                      *
 * [ABORT]                                                                     *
 *  \___/     SCF run NOT converged. To continue the calculation regardless,   *
 *    |             please set the keyword IGNORE_CONVERGENCE_FAILURE.         *
 *  O/|                                                                        *
 * /| |                                                                        *
 * / \                                                            qs_scf.F:611 *
 *******************************************************************************


 ===== Routine Calling Stack ===== 

            3 scf_env_do_scf
            2 qs_energies
            1 CP2K

 *******************************************************************************
 *   ___                                                                       *
 *  /   \                                                                      *
 * [ABORT]                                                                     *
 *  \___/     SCF run NOT converged. To continue the calculation regardless,   *
 *    |             please set the keyword IGNORE_CONVERGENCE_FAILURE.         *
 *  O/|                                                                        *
 * /| |                                                                        *
 * / \                                                            qs_scf.F:611 *
 *******************************************************************************


 ===== Routine Calling Stack ===== 

            3 scf_env_do_scf
            2 qs_energies
            1 CP2K

 *******************************************************************************
 *   ___                                                                       *
 *  /   \                                                                      *
 * [ABORT]                                                                     *
 *  \___/     SCF run NOT converged. To continue the calculation regardless,   *
 *    |             please set the keyword IGNORE_CONVERGENCE_FAILURE.         *
 *  O/|                                                                        *
 * /| |                                                                        *
 * / \                                                            qs_scf.F:611 *
 *******************************************************************************


 ===== Routine Calling Stack ===== 

            3 scf_env_do_scf
            2 qs_energies
            1 CP2K

 *******************************************************************************
 *   ___                                                                       *
 *  /   \                                                                      *
 * [ABORT]                                                                     *
 *  \___/     SCF run NOT converged. To continue the calculation regardless,   *
 *    |             please set the keyword IGNORE_CONVERGENCE_FAILURE.         *
 *  O/|                                                                        *
 * /| |                                                                        *
 * / \                                                            qs_scf.F:611 *
 *******************************************************************************


 ===== Routine Calling Stack ===== 

            3 scf_env_do_scf
            2 qs_energies
            1 CP2K

 *******************************************************************************
 *   ___                                                                       *
 *  /   \                                                                      *
 * [ABORT]                                                                     *
 *  \___/     SCF run NOT converged. To continue the calculation regardless,   *
 *    |             please set the keyword IGNORE_CONVERGENCE_FAILURE.         *
 *  O/|                                                                        *
 * /| |                                                                        *
 * / \                                                            qs_scf.F:611 *
 *******************************************************************************


 ===== Routine Calling Stack ===== 

            3 scf_env_do_scf
            2 qs_energies
            1 CP2K

 *******************************************************************************
 *   ___                                                                       *
 *  /   \                                                                      *
 * [ABORT]                                                                     *
 *  \___/     SCF run NOT converged. To continue the calculation regardless,   *
 *    |             please set the keyword IGNORE_CONVERGENCE_FAILURE.         *
 *  O/|                                                                        *
 * /| |                                                                        *
 * / \                                                            qs_scf.F:611 *
 *******************************************************************************


 ===== Routine Calling Stack ===== 

            3 scf_env_do_scf
            2 qs_energies
            1 CP2K

 *******************************************************************************
 *   ___                                                                       *
 *  /   \                                                                      *
 * [ABORT]                                                                     *
 *  \___/     SCF run NOT converged. To continue the calculation regardless,   *
 *    |             please set the keyword IGNORE_CONVERGENCE_FAILURE.         *
 *  O/|                                                                        *
 * /| |                                                                        *
 * / \                                                            qs_scf.F:611 *
 *******************************************************************************


 ===== Routine Calling Stack ===== 

            3 scf_env_do_scf
            2 qs_energies
            1 CP2K

 *******************************************************************************
 *   ___                                                                       *
 *  /   \                                                                      *
 * [ABORT]                                                                     *
 *  \___/     SCF run NOT converged. To continue the calculation regardless,   *
 *    |             please set the keyword IGNORE_CONVERGENCE_FAILURE.         *
 *  O/|                                                                        *
 * /| |                                                                        *
 * / \                                                            qs_scf.F:611 *
 *******************************************************************************


 ===== Routine Calling Stack ===== 

            3 scf_env_do_scf
            2 qs_energies
            1 CP2K

 *******************************************************************************
 *   ___                                                                       *
 *  /   \                                                                      *
 * [ABORT]                                                                     *
 *  \___/     SCF run NOT converged. To continue the calculation regardless,   *
 *    |             please set the keyword IGNORE_CONVERGENCE_FAILURE.         *
 *  O/|                                                                        *
 * /| |                                                                        *
 * / \                                                            qs_scf.F:611 *
 *******************************************************************************


 ===== Routine Calling Stack ===== 

            3 scf_env_do_scf
            2 qs_energies
            1 CP2K

 *******************************************************************************
 *   ___                                                                       *
 *  /   \                                                                      *
 * [ABORT]                                                                     *
 *  \___/     SCF run NOT converged. To continue the calculation regardless,   *
 *    |             please set the keyword IGNORE_CONVERGENCE_FAILURE.         *
 *  O/|                                                                        *
 * /| |                                                                        *
 * / \                                                            qs_scf.F:611 *
 *******************************************************************************


 ===== Routine Calling Stack ===== 

            3 scf_env_do_scf
            2 qs_energies
            1 CP2K

 *******************************************************************************
 *   ___                                                                       *
 *  /   \                                                                      *
 * [ABORT]                                                                     *
 *  \___/     SCF run NOT converged. To continue the calculation regardless,   *
 *    |             please set the keyword IGNORE_CONVERGENCE_FAILURE.         *
 *  O/|                                                                        *
 * /| |                                                                        *
 * / \                                                            qs_scf.F:611 *
 *******************************************************************************


 ===== Routine Calling Stack ===== 

            3 scf_env_do_scf
            2 qs_energies
            1 CP2K

 *******************************************************************************
 *   ___                                                                       *
 *  /   \                                                                      *
 * [ABORT]                                                                     *
 *  \___/     SCF run NOT converged. To continue the calculation regardless,   *
 *    |             please set the keyword IGNORE_CONVERGENCE_FAILURE.         *
 *  O/|                                                                        *
 * /| |                                                                        *
 * / \                                                            qs_scf.F:611 *
 *******************************************************************************


 ===== Routine Calling Stack ===== 

            3 scf_env_do_scf
            2 qs_energies
            1 CP2K
