 DBCSR| CPU Multiplication driver                                           BLAS (U)
 DBCSR| Multrec recursion limit                                              512 (U)
 DBCSR| Multiplication stack size                                           1000 (D)
 DBCSR| Maximum elements for images                                    UNLIMITED (U)
 DBCSR| Multiplicative factor virtual images                                   1 (U)
 DBCSR| Use multiplication densification                                       T (D)
 DBCSR| Multiplication size stacks                                             3 (U)
 DBCSR| Use memory pool for CPU allocation                                     F (U)
 DBCSR| Number of 3D layers                                               SINGLE (U)
 DBCSR| Use MPI memory allocation                                              F (U)
 DBCSR| Use RMA algorithm                                                      F (U)
 DBCSR| Use Communication thread                                               T (U)
 DBCSR| Communication thread load                                             75 (D)
 DBCSR| MPI: My process id                                                     0
 DBCSR| MPI: Number of processes                                              24
 DBCSR| OMP: Current number of threads                                         4
 DBCSR| OMP: Max number of threads                                             4
 DBCSR| Split modifier for TAS multiplication algorithm                  1.0E+00 (U)


  **** **** ******  **  PROGRAM STARTED AT               2025-03-11 06:53:01.891
 ***** ** ***  *** **   PROGRAM STARTED ON                          i02r11c04s10
 **    ****   ******    PROGRAM STARTED BY                               di38fab
 ***** **    ** ** **   PROGRAM PROCESS ID                               3741927
  **** **  *******  **  PROGRAM STARTED IN /hppfs/scratch/04/di38fab/05_MOL/W4-1
                                           1+ALK/o2/aug-cc-pV5Z

 CP2K| version string:                 CP2K version 2025.1 (Development Version)
 CP2K| source code revision number:                                  git:d2e611a
 CP2K| cp2kflags: omp libint fftw3 libxc parallel scalapack max_contr=4         
 CP2K| is freely available from                            https://www.cp2k.org/
 CP2K| Program compiled at                       Thu 06 Mar 2025 05:09:20 PM CET
 CP2K| Program compiled on                                               login02
 CP2K| Program compiled for                                        Supermuc-foss
 CP2K| Data directory path                  /hppfs/work/pn36zo/di38fab/cp2k/data
 CP2K| Input file name                                                    GW.inp

 GLOBAL| Force Environment number                                              1
 GLOBAL| Basis set file name            /hppfs/scratch/04/di38fab/04_TMD/BASIS_A
 GLOBAL| Potential file name            /hppfs/work/pn36zo/di38fab/cp2k/data/ALL
 GLOBAL| MM Potential file name                                     MM_POTENTIAL
 GLOBAL| Coordinate file name                                      __STD_INPUT__
 GLOBAL| Method name                                                        CP2K
 GLOBAL| Project name                                                       MoS2
 GLOBAL| Run type                                                         ENERGY
 GLOBAL| FFT library                                                       FFTW3
 GLOBAL| Diagonalization library                                       ScaLAPACK
 GLOBAL| DGEMM library                                                      BLAS
 GLOBAL| Orthonormality check for eigenvectors                          DISABLED
 GLOBAL| Matrix multiplication library                                 ScaLAPACK
 GLOBAL| All-to-all communication in single precision                          F
 GLOBAL| FFTs using library dependent lengths                                  F
 GLOBAL| Grid backend                                                       AUTO
 GLOBAL| Global print level                                               MEDIUM
 GLOBAL| MPI I/O enabled                                                       T
 GLOBAL| Total number of message passing processes                            24
 GLOBAL| Number of threads for this process                                    4
 GLOBAL| This output is from process                                           0
 GLOBAL| OpenMP stack size per thread (OMP_STACKSIZE)                    default
 GLOBAL| CPU model name             Intel(R) Xeon(R) Platinum 8174 CPU @ 3.10GHz

 MEMORY| system memory details [Kb]
 MEMORY|                        rank 0           min           max       average
 MEMORY| MemTotal             98436664      98436664      98436664      98436664
 MEMORY| MemFree              83928308      83928308      84006092      83967200
 MEMORY| Buffers                     0             0             0             0
 MEMORY| Cached                2402192       2402192       2409356       2405774
 MEMORY| Slab                  1268692       1244760       1268692       1256726
 MEMORY| SReclaimable           278124        271788        278124        274956
 MEMORY| MemLikelyFree        86608624      86608624      86687236      86647930


 *** Fundamental physical constants (SI units) ***

 *** Literature: B. J. Mohr and B. N. Taylor,
 ***             CODATA recommended values of the fundamental physical
 ***             constants: 2006, Web Version 5.1
 ***             http://physics.nist.gov/constants

 Speed of light in vacuum [m/s]                             2.99792458000000E+08
 Magnetic constant or permeability of vacuum [N/A**2]       1.25663706143592E-06
 Electric constant or permittivity of vacuum [F/m]          8.85418781762039E-12
 Planck constant (h) [J*s]                                  6.62606896000000E-34
 Planck constant (h-bar) [J*s]                              1.05457162825177E-34
 Elementary charge [C]                                      1.60217648700000E-19
 Electron mass [kg]                                         9.10938215000000E-31
 Electron g factor [ ]                                     -2.00231930436220E+00
 Proton mass [kg]                                           1.67262163700000E-27
 Fine-structure constant                                    7.29735253760000E-03
 Rydberg constant [1/m]                                     1.09737315685270E+07
 Avogadro constant [1/mol]                                  6.02214179000000E+23
 Boltzmann constant [J/K]                                   1.38065040000000E-23
 Atomic mass unit [kg]                                      1.66053878200000E-27
 Bohr radius [m]                                            5.29177208590000E-11

 *** Conversion factors ***

 [u] -> [a.u.]                                              1.82288848426455E+03
 [Angstrom] -> [Bohr] = [a.u.]                              1.88972613288564E+00
 [a.u.] = [Bohr] -> [Angstrom]                              5.29177208590000E-01
 [a.u.] -> [s]                                              2.41888432650478E-17
 [a.u.] -> [fs]                                             2.41888432650478E-02
 [a.u.] -> [J]                                              4.35974393937059E-18
 [a.u.] -> [N]                                              8.23872205491840E-08
 [a.u.] -> [K]                                              3.15774647902944E+05
 [a.u.] -> [kJ/mol]                                         2.62549961709828E+03
 [a.u.] -> [kcal/mol]                                       6.27509468713739E+02
 [a.u.] -> [Pa]                                             2.94210107994716E+13
 [a.u.] -> [bar]                                            2.94210107994716E+08
 [a.u.] -> [atm]                                            2.90362800883016E+08
 [a.u.] -> [eV]                                             2.72113838565563E+01
 [a.u.] -> [Hz]                                             6.57968392072181E+15
 [a.u.] -> [1/cm] (wave numbers)                            2.19474631370540E+05
 [a.u./Bohr**2] -> [1/cm]                                   5.14048714338585E+03
 

 CELL_TOP| Volume [angstrom^3]:                                     27000.000000
 CELL_TOP| Vector a [angstrom    30.000     0.000     0.000   |a| =    30.000000
 CELL_TOP| Vector b [angstrom     0.000    30.000     0.000   |b| =    30.000000
 CELL_TOP| Vector c [angstrom     0.000     0.000    30.000   |c| =    30.000000
 CELL_TOP| Angle (b,c), alpha [degree]:                                90.000000
 CELL_TOP| Angle (a,c), beta  [degree]:                                90.000000
 CELL_TOP| Angle (a,b), gamma [degree]:                                90.000000
 CELL_TOP| Numerically orthorhombic:                                         YES
 CELL_TOP| Periodicity                                                      NONE

 GENERATE|  Preliminary Number of Bonds generated:                             0
 GENERATE|  Achieved consistency in connectivity generation.

 CELL| Volume [angstrom^3]:                                         27000.000000
 CELL| Vector a [angstrom]:      30.000     0.000     0.000   |a| =    30.000000
 CELL| Vector b [angstrom]:       0.000    30.000     0.000   |b| =    30.000000
 CELL| Vector c [angstrom]:       0.000     0.000    30.000   |c| =    30.000000
 CELL| Angle (b,c), alpha [degree]:                                    90.000000
 CELL| Angle (a,c), beta  [degree]:                                    90.000000
 CELL| Angle (a,b), gamma [degree]:                                    90.000000
 CELL| Numerically orthorhombic:                                             YES
 CELL| Periodicity                                                          NONE

 CELL_REF| Volume [angstrom^3]:                                     27000.000000
 CELL_REF| Vector a [angstrom    30.000     0.000     0.000   |a| =    30.000000
 CELL_REF| Vector b [angstrom     0.000    30.000     0.000   |b| =    30.000000
 CELL_REF| Vector c [angstrom     0.000     0.000    30.000   |c| =    30.000000
 CELL_REF| Angle (b,c), alpha [degree]:                                90.000000
 CELL_REF| Angle (a,c), beta  [degree]:                                90.000000
 CELL_REF| Angle (a,b), gamma [degree]:                                90.000000
 CELL_REF| Numerically orthorhombic:                                         YES
 CELL_REF| Periodicity                                                      NONE

 *******************************************************************************
 *******************************************************************************
 **                                                                           **
 **     #####                         ##              ##                      **
 **    ##   ##            ##          ##              ##                      **
 **   ##     ##                       ##            ######                    **
 **   ##     ##  ##   ##  ##   #####  ##  ##   ####   ##    #####    #####    **
 **   ##     ##  ##   ##  ##  ##      ## ##   ##      ##   ##   ##  ##   ##   **
 **   ##  ## ##  ##   ##  ##  ##      ####     ###    ##   ######   ######    **
 **    ##  ###   ##   ##  ##  ##      ## ##      ##   ##   ##       ##        **
 **     #######   #####   ##   #####  ##  ##  ####    ##    #####   ##        **
 **           ##                                                    ##        **
 **                                                                           **
 **                                                ... make the atoms dance   **
 **                                                                           **
 **            Copyright (C) by CP2K developers group (2000-2025)             **
 **                      J. Chem. Phys. 152, 194103 (2020)                    **
 **                                                                           **
 *******************************************************************************

 DFT| Spin restricted Kohn-Sham (RKS) calculation                            RKS
 DFT| Multiplicity                                                             1
 DFT| Number of spin states                                                    1
 DFT| Charge                                                                   0
 DFT| Self-interaction correction (SIC)                                       NO
 DFT| Cutoffs: density                                              1.000000E-10
 DFT|          gradient                                             1.000000E-10
 DFT|          tau                                                  1.000000E-10
 DFT|          cutoff_smoothing_range                               0.000000E+00
 DFT| XC density smoothing                                                  NONE
 DFT| XC derivatives                                                          PW

 FUNCTIONAL| PBE:
 FUNCTIONAL| J.P.Perdew, K.Burke, M.Ernzerhof, Phys. Rev. Letter, vol. 77, n 18,
 FUNCTIONAL|  pp. 3865-3868, (1996)sx=0.750sc=1.000{spin unpolarized}           


 QS| Method:                                                                GAPW
 QS| Density plane wave grid type                        NON-SPHERICAL FULLSPACE
 QS| Number of grid levels:                                                    4
 QS| Density cutoff [a.u.]:                                                250.0
 QS| Multi grid cutoff [a.u.]: 1) grid level                               250.0
 QS|                           2) grid level                                83.3
 QS|                           3) grid level                                27.8
 QS|                           4) grid level                                 9.3
 QS| Grid level progression factor:                                          3.0
 QS| Relative density cutoff [a.u.]:                                        50.0
 QS| Interaction thresholds: eps_pgf_orb:                                1.0E-12
 QS|                         eps_filter_matrix:                          0.0E+00
 QS|                         eps_core_charge:                            1.0E-14
 QS|                         eps_rho_gspace:                             1.0E-12
 QS|                         eps_rho_rspace:                             1.0E-12
 QS|                         eps_gvg_rspace:                             1.0E-06
 QS|                         eps_ppl:                                    1.0E-02
 QS|                         eps_ppnl:                                   1.0E-08
 QS| GAPW|      One center basis from orbital basis primitives
 QS| GAPW|                   eps_fit:                                    1.0E-04
 QS| GAPW|                   eps_iso:                                    1.0E-12
 QS| GAPW|                   eps_svd:                                    1.0E-08
 QS| GAPW|                   eps_cpc:                                    1.0E-12
 QS| GAPW|   atom-r-grid: quadrature:                                     GC_LOG
 QS| GAPW|      atom-s-grid:  max l :                                         10
 QS| GAPW|      max_l_rho0 :                                                   2


 ATOMIC KIND INFORMATION

  1. Atomic kind: O                                     Number of atoms:       2

     Orbital Basis Set                                               aug-cc-pV5Z

       Number of orbital shell sets:                                          12
       Number of orbital shells:                                              27
       Number of primitive Cartesian functions:                               38
       Number of Cartesian basis functions:                                  182
       Number of spherical basis functions:                                  127
       Norm type:                                                              2

       Normalised Cartesian orbitals:

                        Set   Shell   Orbital            Exponent    Coefficient

                          1       1    1px               0.044600       0.029215
                          1       1    1py               0.044600       0.029215
                          1       1    1pz               0.044600       0.029215

                          2       1    1s                0.065500       0.092276

                          3       1    1px             195.500000       0.000000
                                                        46.160000       0.000000
                                                        14.580000       0.000000
                                                         5.296000       0.000000
                                                         2.094000       3.590550
                                                         0.847100       0.000000
                                                         0.336800       0.000000
                                                         0.128500       0.000000
                          3       1    1py             195.500000       0.000000
                                                        46.160000       0.000000
                                                        14.580000       0.000000
                                                         5.296000       0.000000
                                                         2.094000       3.590550
                                                         0.847100       0.000000
                                                         0.336800       0.000000
                                                         0.128500       0.000000
                          3       1    1pz             195.500000       0.000000
                                                        46.160000       0.000000
                                                        14.580000       0.000000
                                                         5.296000       0.000000
                                                         2.094000       3.590550
                                                         0.847100       0.000000
                                                         0.336800       0.000000
                                                         0.128500       0.000000

                          3       2    2px             195.500000       0.000000
                                                        46.160000       0.000000
                                                        14.580000       0.000000
                                                         5.296000       0.000000
                                                         2.094000       0.000000
                                                         0.847100       1.158400
                                                         0.336800       0.000000
                                                         0.128500       0.000000
                          3       2    2py             195.500000       0.000000
                                                        46.160000       0.000000
                                                        14.580000       0.000000
                                                         5.296000       0.000000
                                                         2.094000       0.000000
                                                         0.847100       1.158400
                                                         0.336800       0.000000
                                                         0.128500       0.000000
                          3       2    2pz             195.500000       0.000000
                                                        46.160000       0.000000
                                                        14.580000       0.000000
                                                         5.296000       0.000000
                                                         2.094000       0.000000
                                                         0.847100       1.158400
                                                         0.336800       0.000000
                                                         0.128500       0.000000

                          3       3    3px             195.500000       0.956569
                                                        46.160000       1.267066
                                                        14.580000       1.419658
                                                         5.296000       1.321897
                                                         2.094000       0.922064
                                                         0.847100       0.433170
                                                         0.336800       0.125607
                                                         0.128500       0.014224
                          3       3    3py             195.500000       0.956569
                                                        46.160000       1.267066
                                                        14.580000       1.419658
                                                         5.296000       1.321897
                                                         2.094000       0.922064
                                                         0.847100       0.433170
                                                         0.336800       0.125607
                                                         0.128500       0.014224
                          3       3    3pz             195.500000       0.956569
                                                        46.160000       1.267066
                                                        14.580000       1.419658
                                                         5.296000       1.321897
                                                         2.094000       0.922064
                                                         0.847100       0.433170
                                                         0.336800       0.125607
                                                         0.128500       0.014224

                          3       4    4px             195.500000       0.000000
                                                        46.160000       0.000000
                                                        14.580000       0.000000
                                                         5.296000       0.000000
                                                         2.094000       0.000000
                                                         0.847100       0.000000
                                                         0.336800       0.365725
                                                         0.128500       0.000000
                          3       4    4py             195.500000       0.000000
                                                        46.160000       0.000000
                                                        14.580000       0.000000
                                                         5.296000       0.000000
                                                         2.094000       0.000000
                                                         0.847100       0.000000
                                                         0.336800       0.365725
                                                         0.128500       0.000000
                          3       4    4pz             195.500000       0.000000
                                                        46.160000       0.000000
                                                        14.580000       0.000000
                                                         5.296000       0.000000
                                                         2.094000       0.000000
                                                         0.847100       0.000000
                                                         0.336800       0.365725
                                                         0.128500       0.000000

                          3       5    5px             195.500000       0.000000
                                                        46.160000       0.000000
                                                        14.580000       0.000000
                                                         5.296000       0.000000
                                                         2.094000       0.000000
                                                         0.847100       0.000000
                                                         0.336800       0.000000
                                                         0.128500       0.109665
                          3       5    5py             195.500000       0.000000
                                                        46.160000       0.000000
                                                        14.580000       0.000000
                                                         5.296000       0.000000
                                                         2.094000       0.000000
                                                         0.847100       0.000000
                                                         0.336800       0.000000
                                                         0.128500       0.109665
                          3       5    5pz             195.500000       0.000000
                                                        46.160000       0.000000
                                                        14.580000       0.000000
                                                         5.296000       0.000000
                                                         2.094000       0.000000
                                                         0.847100       0.000000
                                                         0.336800       0.000000
                                                         0.128500       0.109665

                          4       1    1dx2              0.131000       0.046950
                          4       1    1dxy              0.131000       0.081320
                          4       1    1dxz              0.131000       0.081320
                          4       1    1dy2              0.131000       0.046950
                          4       1    1dyz              0.131000       0.081320
                          4       1    1dz2              0.131000       0.046950

                          5       1    1s           164200.000000       0.151152
                                                     24590.000000       0.286901
                                                      5592.000000       0.495904
                                                      1582.000000       0.808436
                                                       516.100000       1.243088
                                                       187.200000       1.770469
                                                        73.930000       2.243564
                                                        31.220000       2.369157
                                                        13.810000       1.850408
                                                         6.256000       0.786713
                                                         2.776000       0.097410
                                                         1.138000       0.000835
                                                         0.460000       0.000455
                                                         0.182900      -0.000008

                          5       2    2s           164200.000000       0.000000
                                                     24590.000000       0.000000
                                                      5592.000000       0.000000
                                                      1582.000000       0.000000
                                                       516.100000       0.000000
                                                       187.200000       0.000000
                                                        73.930000       0.000000
                                                        31.220000       0.000000
                                                        13.810000       0.000000
                                                         6.256000       0.000000
                                                         2.776000       1.532762
                                                         1.138000       0.000000
                                                         0.460000       0.000000
                                                         0.182900       0.000000

                          5       3    3s           164200.000000       0.000000
                                                     24590.000000       0.000000
                                                      5592.000000       0.000000
                                                      1582.000000       0.000000
                                                       516.100000       0.000000
                                                       187.200000       0.000000
                                                        73.930000       0.000000
                                                        31.220000       0.000000
                                                        13.810000       0.000000
                                                         6.256000       0.000000
                                                         2.776000       0.000000
                                                         1.138000       0.785266
                                                         0.460000       0.000000
                                                         0.182900       0.000000

                          5       4    4s           164200.000000      -0.034881
                                                     24590.000000      -0.064378
                                                      5592.000000      -0.112454
                                                      1582.000000      -0.184320
                                                       516.100000      -0.284611
                                                       187.200000      -0.415303
                                                        73.930000      -0.546888
                                                        31.220000      -0.641477
                                                        13.810000      -0.614563
                                                         6.256000      -0.417981
                                                         2.776000       0.015182
                                                         1.138000       0.301767
                                                         0.460000       0.213695
                                                         0.182900       0.040401

                          5       5    5s           164200.000000       0.000000
                                                     24590.000000       0.000000
                                                      5592.000000       0.000000
                                                      1582.000000       0.000000
                                                       516.100000       0.000000
                                                       187.200000       0.000000
                                                        73.930000       0.000000
                                                        31.220000       0.000000
                                                        13.810000       0.000000
                                                         6.256000       0.000000
                                                         2.776000       0.000000
                                                         1.138000       0.000000
                                                         0.460000       0.398087
                                                         0.182900       0.000000

                          5       6    6s           164200.000000       0.000000
                                                     24590.000000       0.000000
                                                      5592.000000       0.000000
                                                      1582.000000       0.000000
                                                       516.100000       0.000000
                                                       187.200000       0.000000
                                                        73.930000       0.000000
                                                        31.220000       0.000000
                                                        13.810000       0.000000
                                                         6.256000       0.000000
                                                         2.776000       0.000000
                                                         1.138000       0.000000
                                                         0.460000       0.000000
                                                         0.182900       0.199329

                          6       1    1fx3              0.237000       0.057695
                          6       1    1fx2y             0.237000       0.129010
                          6       1    1fx2z             0.237000       0.129010
                          6       1    1fxy2             0.237000       0.129010
                          6       1    1fxyz             0.237000       0.223452
                          6       1    1fxz2             0.237000       0.129010
                          6       1    1fy3              0.237000       0.057695
                          6       1    1fy2z             0.237000       0.129010
                          6       1    1fyz2             0.237000       0.129010
                          6       1    1fz3              0.237000       0.057695

                          7       1    1dx2              5.879000      36.533435
                                                         2.307000       0.000000
                                                         0.905000       0.000000
                                                         0.355000       0.000000
                          7       1    1dxy              5.879000      63.277766
                                                         2.307000       0.000000
                                                         0.905000       0.000000
                                                         0.355000       0.000000
                          7       1    1dxz              5.879000      63.277766
                                                         2.307000       0.000000
                                                         0.905000       0.000000
                                                         0.355000       0.000000
                          7       1    1dy2              5.879000      36.533435
                                                         2.307000       0.000000
                                                         0.905000       0.000000
                                                         0.355000       0.000000
                          7       1    1dyz              5.879000      63.277766
                                                         2.307000       0.000000
                                                         0.905000       0.000000
                                                         0.355000       0.000000
                          7       1    1dz2              5.879000      36.533435
                                                         2.307000       0.000000
                                                         0.905000       0.000000
                                                         0.355000       0.000000

                          7       2    2dx2              5.879000       0.000000
                                                         2.307000       7.107924
                                                         0.905000       0.000000
                                                         0.355000       0.000000
                          7       2    2dxy              5.879000       0.000000
                                                         2.307000      12.311285
                                                         0.905000       0.000000
                                                         0.355000       0.000000
                          7       2    2dxz              5.879000       0.000000
                                                         2.307000      12.311285
                                                         0.905000       0.000000
                                                         0.355000       0.000000
                          7       2    2dy2              5.879000       0.000000
                                                         2.307000       7.107924
                                                         0.905000       0.000000
                                                         0.355000       0.000000
                          7       2    2dyz              5.879000       0.000000
                                                         2.307000      12.311285
                                                         0.905000       0.000000
                                                         0.355000       0.000000
                          7       2    2dz2              5.879000       0.000000
                                                         2.307000       7.107924
                                                         0.905000       0.000000
                                                         0.355000       0.000000

                          7       3    3dx2              5.879000       0.000000
                                                         2.307000       0.000000
                                                         0.905000       1.382116
                                                         0.355000       0.000000
                          7       3    3dxy              5.879000       0.000000
                                                         2.307000       0.000000
                                                         0.905000       2.393895
                                                         0.355000       0.000000
                          7       3    3dxz              5.879000       0.000000
                                                         2.307000       0.000000
                                                         0.905000       2.393895
                                                         0.355000       0.000000
                          7       3    3dy2              5.879000       0.000000
                                                         2.307000       0.000000
                                                         0.905000       1.382116
                                                         0.355000       0.000000
                          7       3    3dyz              5.879000       0.000000
                                                         2.307000       0.000000
                                                         0.905000       2.393895
                                                         0.355000       0.000000
                          7       3    3dz2              5.879000       0.000000
                                                         2.307000       0.000000
                                                         0.905000       1.382116
                                                         0.355000       0.000000

                          7       4    4dx2              5.879000       0.000000
                                                         2.307000       0.000000
                                                         0.905000       0.000000
                                                         0.355000       0.268726
                          7       4    4dxy              5.879000       0.000000
                                                         2.307000       0.000000
                                                         0.905000       0.000000
                                                         0.355000       0.465446
                          7       4    4dxz              5.879000       0.000000
                                                         2.307000       0.000000
                                                         0.905000       0.000000
                                                         0.355000       0.465446
                          7       4    4dy2              5.879000       0.000000
                                                         2.307000       0.000000
                                                         0.905000       0.000000
                                                         0.355000       0.268726
                          7       4    4dyz              5.879000       0.000000
                                                         2.307000       0.000000
                                                         0.905000       0.000000
                                                         0.355000       0.465446
                          7       4    4dz2              5.879000       0.000000
                                                         2.307000       0.000000
                                                         0.905000       0.000000
                                                         0.355000       0.268726

                          8       1    1gx4              0.517000       0.181357
                          8       1    1gx3y             0.517000       0.479826
                          8       1    1gx3z             0.517000       0.479826
                          8       1    1gx2y2            0.517000       0.619452
                          8       1    1gx2yz            0.517000       1.072923
                          8       1    1gx2z2            0.517000       0.619452
                          8       1    1gxy3             0.517000       0.479826
                          8       1    1gxy2z            0.517000       1.072923
                          8       1    1gxyz2            0.517000       1.072923
                          8       1    1gxz3             0.517000       0.479826
                          8       1    1gy4              0.517000       0.181357
                          8       1    1gy3z             0.517000       0.479826
                          8       1    1gy2z2            0.517000       0.619452
                          8       1    1gyz3             0.517000       0.479826
                          8       1    1gz4              0.517000       0.181357

                          9       1    1fx3              4.016000      33.611685
                                                         1.554000       0.000000
                                                         0.601000       0.000000
                          9       1    1fx2y             4.016000      75.158012
                                                         1.554000       0.000000
                                                         0.601000       0.000000
                          9       1    1fx2z             4.016000      75.158012
                                                         1.554000       0.000000
                                                         0.601000       0.000000
                          9       1    1fxy2             4.016000      75.158012
                                                         1.554000       0.000000
                                                         0.601000       0.000000
                          9       1    1fxyz             4.016000     130.177496
                                                         1.554000       0.000000
                                                         0.601000       0.000000
                          9       1    1fxz2             4.016000      75.158012
                                                         1.554000       0.000000
                                                         0.601000       0.000000
                          9       1    1fy3              4.016000      33.611685
                                                         1.554000       0.000000
                                                         0.601000       0.000000
                          9       1    1fy2z             4.016000      75.158012
                                                         1.554000       0.000000
                                                         0.601000       0.000000
                          9       1    1fyz2             4.016000      75.158012
                                                         1.554000       0.000000
                                                         0.601000       0.000000
                          9       1    1fz3              4.016000      33.611685
                                                         1.554000       0.000000
                                                         0.601000       0.000000

                          9       2    2fx3              4.016000       0.000000
                                                         1.554000       3.969349
                                                         0.601000       0.000000
                          9       2    2fx2y             4.016000       0.000000
                                                         1.554000       8.875733
                                                         0.601000       0.000000
                          9       2    2fx2z             4.016000       0.000000
                                                         1.554000       8.875733
                                                         0.601000       0.000000
                          9       2    2fxy2             4.016000       0.000000
                                                         1.554000       8.875733
                                                         0.601000       0.000000
                          9       2    2fxyz             4.016000       0.000000
                                                         1.554000      15.373221
                                                         0.601000       0.000000
                          9       2    2fxz2             4.016000       0.000000
                                                         1.554000       8.875733
                                                         0.601000       0.000000
                          9       2    2fy3              4.016000       0.000000
                                                         1.554000       3.969349
                                                         0.601000       0.000000
                          9       2    2fy2z             4.016000       0.000000
                                                         1.554000       8.875733
                                                         0.601000       0.000000
                          9       2    2fyz2             4.016000       0.000000
                                                         1.554000       8.875733
                                                         0.601000       0.000000
                          9       2    2fz3              4.016000       0.000000
                                                         1.554000       3.969349
                                                         0.601000       0.000000

                          9       3    3fx3              4.016000       0.000000
                                                         1.554000       0.000000
                                                         0.601000       0.468190
                          9       3    3fx2y             4.016000       0.000000
                                                         1.554000       0.000000
                                                         0.601000       1.046904
                          9       3    3fx2z             4.016000       0.000000
                                                         1.554000       0.000000
                                                         0.601000       1.046904
                          9       3    3fxy2             4.016000       0.000000
                                                         1.554000       0.000000
                                                         0.601000       1.046904
                          9       3    3fxyz             4.016000       0.000000
                                                         1.554000       0.000000
                                                         0.601000       1.813292
                          9       3    3fxz2             4.016000       0.000000
                                                         1.554000       0.000000
                                                         0.601000       1.046904
                          9       3    3fy3              4.016000       0.000000
                                                         1.554000       0.000000
                                                         0.601000       0.468190
                          9       3    3fy2z             4.016000       0.000000
                                                         1.554000       0.000000
                                                         0.601000       1.046904
                          9       3    3fyz2             4.016000       0.000000
                                                         1.554000       0.000000
                                                         0.601000       1.046904
                          9       3    3fz3              4.016000       0.000000
                                                         1.554000       0.000000
                                                         0.601000       0.468190

                         10       1    1hx5              1.024000       0.801344
                         10       1    1hx4y             1.024000       2.404032
                         10       1    1hx4z             1.024000       2.404032
                         10       1    1hx3y2            1.024000       3.672220
                         10       1    1hx3yz            1.024000       6.360471
                         10       1    1hx3z2            1.024000       3.672220
                         10       1    1hx2y3            1.024000       3.672220
                         10       1    1hx2y2z           1.024000       8.211333
                         10       1    1hx2yz2           1.024000       8.211333
                         10       1    1hx2z3            1.024000       3.672220
                         10       1    1hxy4             1.024000       2.404032
                         10       1    1hxy3z            1.024000       6.360471
                         10       1    1hxy2z2           1.024000       8.211333
                         10       1    1hxyz3            1.024000       6.360471
                         10       1    1hxz4             1.024000       2.404032
                         10       1    1hy5              1.024000       0.801344
                         10       1    1hy4z             1.024000       2.404032
                         10       1    1hy3z2            1.024000       3.672220
                         10       1    1hy2z3            1.024000       3.672220
                         10       1    1hyz4             1.024000       2.404032
                         10       1    1hz5              1.024000       0.801344

                         11       1    1gx4              3.350000      30.924924
                                                         1.189000       0.000000
                         11       1    1gx3y             3.350000      81.819659
                                                         1.189000       0.000000
                         11       1    1gx3z             3.350000      81.819659
                                                         1.189000       0.000000
                         11       1    1gx2y2            3.350000     105.628725
                                                         1.189000       0.000000
                         11       1    1gx2yz            3.350000     182.954319
                                                         1.189000       0.000000
                         11       1    1gx2z2            3.350000     105.628725
                                                         1.189000       0.000000
                         11       1    1gxy3             3.350000      81.819659
                                                         1.189000       0.000000
                         11       1    1gxy2z            3.350000     182.954319
                                                         1.189000       0.000000
                         11       1    1gxyz2            3.350000     182.954319
                                                         1.189000       0.000000
                         11       1    1gxz3             3.350000      81.819659
                                                         1.189000       0.000000
                         11       1    1gy4              3.350000      30.924924
                                                         1.189000       0.000000
                         11       1    1gy3z             3.350000      81.819659
                                                         1.189000       0.000000
                         11       1    1gy2z2            3.350000     105.628725
                                                         1.189000       0.000000
                         11       1    1gyz3             3.350000      81.819659
                                                         1.189000       0.000000
                         11       1    1gz4              3.350000      30.924924
                                                         1.189000       0.000000

                         11       2    2gx4              3.350000       0.000000
                                                         1.189000       1.791371
                         11       2    2gx3y             3.350000       0.000000
                                                         1.189000       4.739522
                         11       2    2gx3z             3.350000       0.000000
                                                         1.189000       4.739522
                         11       2    2gx2y2            3.350000       0.000000
                                                         1.189000       6.118697
                         11       2    2gx2yz            3.350000       0.000000
                                                         1.189000      10.597893
                         11       2    2gx2z2            3.350000       0.000000
                                                         1.189000       6.118697
                         11       2    2gxy3             3.350000       0.000000
                                                         1.189000       4.739522
                         11       2    2gxy2z            3.350000       0.000000
                                                         1.189000      10.597893
                         11       2    2gxyz2            3.350000       0.000000
                                                         1.189000      10.597893
                         11       2    2gxz3             3.350000       0.000000
                                                         1.189000       4.739522
                         11       2    2gy4              3.350000       0.000000
                                                         1.189000       1.791371
                         11       2    2gy3z             3.350000       0.000000
                                                         1.189000       4.739522
                         11       2    2gy2z2            3.350000       0.000000
                                                         1.189000       6.118697
                         11       2    2gyz3             3.350000       0.000000
                                                         1.189000       4.739522
                         11       2    2gz4              3.350000       0.000000
                                                         1.189000       1.791371

                         12       1    1hx5              2.319000      11.417515
                         12       1    1hx4y             2.319000      34.252546
                         12       1    1hx4z             2.319000      34.252546
                         12       1    1hx3y2            2.319000      52.321628
                         12       1    1hx3yz            2.319000      90.623718
                         12       1    1hx3z2            2.319000      52.321628
                         12       1    1hx2y3            2.319000      52.321628
                         12       1    1hx2y2z           2.319000     116.994716
                         12       1    1hx2yz2           2.319000     116.994716
                         12       1    1hx2z3            2.319000      52.321628
                         12       1    1hxy4             2.319000      34.252546
                         12       1    1hxy3z            2.319000      90.623718
                         12       1    1hxy2z2           2.319000     116.994716
                         12       1    1hxyz3            2.319000      90.623718
                         12       1    1hxz4             2.319000      34.252546
                         12       1    1hy5              2.319000      11.417515
                         12       1    1hy4z             2.319000      34.252546
                         12       1    1hy3z2            2.319000      52.321628
                         12       1    1hy2z3            2.319000      52.321628
                         12       1    1hyz4             2.319000      34.252546
                         12       1    1hz5              2.319000      11.417515

     RI Auxiliary Basis Set                                    aug-cc-pV5Z-OPTRI

       Number of orbital shell sets:                                          22
       Number of orbital shells:                                              22
       Number of primitive Cartesian functions:                               22
       Number of Cartesian basis functions:                                  188
       Number of spherical basis functions:                                  122
       Norm type:                                                              2

       Normalised Cartesian orbitals:

                        Set   Shell   Orbital            Exponent    Coefficient

                          1       1    1px               0.192845       0.182159
                          1       1    1py               0.192845       0.182159
                          1       1    1pz               0.192845       0.182159

                          2       1    1s                0.274668       0.270406

                          3       1    1gx4              0.339769       0.057173
                          3       1    1gx3y             0.339769       0.151265
                          3       1    1gx3z             0.339769       0.151265
                          3       1    1gx2y2            0.339769       0.195283
                          3       1    1gx2yz            0.339769       0.338240
                          3       1    1gx2z2            0.339769       0.195283
                          3       1    1gxy3             0.339769       0.151265
                          3       1    1gxy2z            0.339769       0.338240
                          3       1    1gxyz2            0.339769       0.338240
                          3       1    1gxz3             0.339769       0.151265
                          3       1    1gy4              0.339769       0.057173
                          3       1    1gy3z             0.339769       0.151265
                          3       1    1gy2z2            0.339769       0.195283
                          3       1    1gyz3             0.339769       0.151265
                          3       1    1gz4              0.339769       0.057173

                          4       1    1px               0.521618       0.631874
                          4       1    1py               0.521618       0.631874
                          4       1    1pz               0.521618       0.631874

                          5       1    1hx5              0.685702       0.217663
                          5       1    1hx4y             0.685702       0.652988
                          5       1    1hx4z             0.685702       0.652988
                          5       1    1hx3y2            0.685702       0.997456
                          5       1    1hx3yz            0.685702       1.727645
                          5       1    1hx3z2            0.685702       0.997456
                          5       1    1hx2y3            0.685702       0.997456
                          5       1    1hx2y2z           0.685702       2.230380
                          5       1    1hx2yz2           0.685702       2.230380
                          5       1    1hx2z3            0.685702       0.997456
                          5       1    1hxy4             0.685702       0.652988
                          5       1    1hxy3z            0.685702       1.727645
                          5       1    1hxy2z2           0.685702       2.230380
                          5       1    1hxyz3            0.685702       1.727645
                          5       1    1hxz4             0.685702       0.652988
                          5       1    1hy5              0.685702       0.217663
                          5       1    1hy4z             0.685702       0.652988
                          5       1    1hy3z2            0.685702       0.997456
                          5       1    1hy2z3            0.685702       0.997456
                          5       1    1hyz4             0.685702       0.652988
                          5       1    1hz5              0.685702       0.217663

                          6       1    1s                0.758952       0.579523

                          7       1    1fx3              0.920013       1.220368
                          7       1    1fx2y             0.920013       2.728826
                          7       1    1fx2z             0.920013       2.728826
                          7       1    1fxy2             0.920013       2.728826
                          7       1    1fxyz             0.920013       4.726466
                          7       1    1fxz2             0.920013       2.728826
                          7       1    1fy3              0.920013       1.220368
                          7       1    1fy2z             0.920013       2.728826
                          7       1    1fyz2             0.920013       2.728826
                          7       1    1fz3              0.920013       1.220368

                          8       1    1px               1.316456       2.010009
                          8       1    1py               1.316456       2.010009
                          8       1    1pz               1.316456       2.010009

                          9       1    1dx2              1.359080       2.815712
                          9       1    1dxy              1.359080       4.876956
                          9       1    1dxz              1.359080       4.876956
                          9       1    1dy2              1.359080       2.815712
                          9       1    1dyz              1.359080       4.876956
                          9       1    1dz2              1.359080       2.815712

                         10       1    1s                1.708274       1.064948

                         11       1    1gx4              1.984321       7.326022
                         11       1    1gx3y             1.984321      19.382833
                         11       1    1gx3z             1.984321      19.382833
                         11       1    1gx2y2            1.984321      25.023130
                         11       1    1gx2yz            1.984321      43.341332
                         11       1    1gx2z2            1.984321      25.023130
                         11       1    1gxy3             1.984321      19.382833
                         11       1    1gxy2z            1.984321      43.341332
                         11       1    1gxyz2            1.984321      43.341332
                         11       1    1gxz3             1.984321      19.382833
                         11       1    1gy4              1.984321       7.326022
                         11       1    1gy3z             1.984321      19.382833
                         11       1    1gy2z2            1.984321      25.023130
                         11       1    1gyz3             1.984321      19.382833
                         11       1    1gz4              1.984321       7.326022

                         12       1    1ix6              2.226496       9.000363
                         12       1    1ix5y             2.226496      29.850826
                         12       1    1ix5z             2.226496      29.850826
                         12       1    1ix4y2            2.226496      51.703148
                         12       1    1ix4yz            2.226496      89.552479
                         12       1    1ix4z2            2.226496      51.703148
                         12       1    1ix3y3            2.226496      61.175990
                         12       1    1ix3y2z           2.226496     136.793672
                         12       1    1ix3yz2           2.226496     136.793672
                         12       1    1ix3z3            2.226496      61.175990
                         12       1    1ix2y4            2.226496      51.703148
                         12       1    1ix2y3z           2.226496     136.793672
                         12       1    1ix2y2z2          2.226496     176.599871
                         12       1    1ix2yz3           2.226496     136.793672
                         12       1    1ix2z4            2.226496      51.703148
                         12       1    1ixy5             2.226496      29.850826
                         12       1    1ixy4z            2.226496      89.552479
                         12       1    1ixy3z2           2.226496     136.793672
                         12       1    1ixy2z3           2.226496     136.793672
                         12       1    1ixyz4            2.226496      89.552479
                         12       1    1ixz5             2.226496      29.850826
                         12       1    1iy6              2.226496       9.000363
                         12       1    1iy5z             2.226496      29.850826
                         12       1    1iy4z2            2.226496      51.703148
                         12       1    1iy3z3            2.226496      61.175990
                         12       1    1iy2z4            2.226496      51.703148
                         12       1    1iyz5             2.226496      29.850826
                         12       1    1iz6              2.226496       9.000363

                         13       1    1fx3              2.442348      10.977954
                         13       1    1fx2y             2.442348      24.547452
                         13       1    1fx2z             2.442348      24.547452
                         13       1    1fxy2             2.442348      24.547452
                         13       1    1fxyz             2.442348      42.517435
                         13       1    1fxz2             2.442348      24.547452
                         13       1    1fy3              2.442348      10.977954
                         13       1    1fy2z             2.442348      24.547452
                         13       1    1fyz2             2.442348      24.547452
                         13       1    1fz3              2.442348      10.977954

                         14       1    1px               3.140498       5.959204
                         14       1    1py               3.140498       5.959204
                         14       1    1pz               3.140498       5.959204

                         15       1    1dx2              3.456503      14.421954
                         15       1    1dxy              3.456503      24.979557
                         15       1    1dxz              3.456503      24.979557
                         15       1    1dy2              3.456503      14.421954
                         15       1    1dyz              3.456503      24.979557
                         15       1    1dz2              3.456503      14.421954

                         16       1    1hx5              4.429012      93.506425
                         16       1    1hx4y             4.429012     280.519274
                         16       1    1hx4z             4.429012     280.519274
                         16       1    1hx3y2            4.429012     428.500269
                         16       1    1hx3yz            4.429012     742.184237
                         16       1    1hx3z2            4.429012     428.500269
                         16       1    1hx2y3            4.429012     428.500269
                         16       1    1hx2y2z           4.429012     958.155730
                         16       1    1hx2yz2           4.429012     958.155730
                         16       1    1hx2z3            4.429012     428.500269
                         16       1    1hxy4             4.429012     280.519274
                         16       1    1hxy3z            4.429012     742.184237
                         16       1    1hxy2z2           4.429012     958.155730
                         16       1    1hxyz3            4.429012     742.184237
                         16       1    1hxz4             4.429012     280.519274
                         16       1    1hy5              4.429012      93.506425
                         16       1    1hy4z             4.429012     280.519274
                         16       1    1hy3z2            4.429012     428.500269
                         16       1    1hy2z3            4.429012     428.500269
                         16       1    1hyz4             4.429012     280.519274
                         16       1    1hz5              4.429012      93.506425

                         17       1    1gx4              6.427916     185.621576
                         17       1    1gx3y             6.427916     491.108528
                         17       1    1gx3z             6.427916     491.108528
                         17       1    1gx2y2            6.427916     634.018383
                         17       1    1gx2yz            6.427916    1098.152053
                         17       1    1gx2z2            6.427916     634.018383
                         17       1    1gxy3             6.427916     491.108528
                         17       1    1gxy2z            6.427916    1098.152053
                         17       1    1gxyz2            6.427916    1098.152053
                         17       1    1gxz3             6.427916     491.108528
                         17       1    1gy4              6.427916     185.621576
                         17       1    1gy3z             6.427916     491.108528
                         17       1    1gy2z2            6.427916     634.018383
                         17       1    1gyz3             6.427916     491.108528
                         17       1    1gz4              6.427916     185.621576

                         18       1    1s                8.479764       3.541587

                         19       1    1px               8.953653      22.077018
                         19       1    1py               8.953653      22.077018
                         19       1    1pz               8.953653      22.077018

                         20       1    1dx2              9.321805      81.852977
                         20       1    1dxy              9.321805     141.773515
                         20       1    1dxz              9.321805     141.773515
                         20       1    1dy2              9.321805      81.852977
                         20       1    1dyz              9.321805     141.773515
                         20       1    1dz2              9.321805      81.852977

                         21       1    1fx3              9.907249     256.359181
                         21       1    1fx2y             9.907249     573.236556
                         21       1    1fx2z             9.907249     573.236556
                         21       1    1fxy2             9.907249     573.236556
                         21       1    1fxyz             9.907249     992.874840
                         21       1    1fxz2             9.907249     573.236556
                         21       1    1fy3              9.907249     256.359181
                         21       1    1fy2z             9.907249     573.236556
                         21       1    1fyz2             9.907249     573.236556
                         21       1    1fz3              9.907249     256.359181

                         22       1    1dx2             23.259092     405.458846
                         22       1    1dxy             23.259092     702.275322
                         22       1    1dxz             23.259092     702.275322
                         22       1    1dy2             23.259092     405.458846
                         22       1    1dyz             23.259092     702.275322
                         22       1    1dz2             23.259092     405.458846

       Atomic covalent radius [Angstrom]:                                  0.730

       Atomic van der Waals radius [Angstrom]:                             1.520

     The atoms of this atomic kind are PAW atoms (GAPW):
       Hard Gaussian function radius:                                      1.512
       Rho0 radius:                                                        1.512
       Maximum GTO radius used for PAW projector construction:            24.566

     GAPW Soft Basis Set                                        aug-cc-pV5Z_soft

       Number of orbital shell sets:                                          12
       Number of orbital shells:                                              27
       Number of primitive Cartesian functions:                               23
       Number of Cartesian basis functions:                                  182
       Number of spherical basis functions:                                  127
       Norm type:                                                              2

       Normalised Cartesian orbitals:

                        Set   Shell   Orbital            Exponent    Coefficient

                          1       1    1px               0.044600       0.029215
                          1       1    1py               0.044600       0.029215
                          1       1    1pz               0.044600       0.029215

                          2       1    1s                0.065500       0.092276

                          3       1    1px               2.094000       3.590550
                                                         0.847100       0.000000
                                                         0.336800       0.000000
                                                         0.128500       0.000000
                          3       1    1py               2.094000       3.590550
                                                         0.847100       0.000000
                                                         0.336800       0.000000
                                                         0.128500       0.000000
                          3       1    1pz               2.094000       3.590550
                                                         0.847100       0.000000
                                                         0.336800       0.000000
                                                         0.128500       0.000000

                          3       2    2px               2.094000       0.000000
                                                         0.847100       1.158400
                                                         0.336800       0.000000
                                                         0.128500       0.000000
                          3       2    2py               2.094000       0.000000
                                                         0.847100       1.158400
                                                         0.336800       0.000000
                                                         0.128500       0.000000
                          3       2    2pz               2.094000       0.000000
                                                         0.847100       1.158400
                                                         0.336800       0.000000
                                                         0.128500       0.000000

                          3       3    3px               2.094000       0.922064
                                                         0.847100       0.433170
                                                         0.336800       0.125607
                                                         0.128500       0.014224
                          3       3    3py               2.094000       0.922064
                                                         0.847100       0.433170
                                                         0.336800       0.125607
                                                         0.128500       0.014224
                          3       3    3pz               2.094000       0.922064
                                                         0.847100       0.433170
                                                         0.336800       0.125607
                                                         0.128500       0.014224

                          3       4    4px               2.094000       0.000000
                                                         0.847100       0.000000
                                                         0.336800       0.365725
                                                         0.128500       0.000000
                          3       4    4py               2.094000       0.000000
                                                         0.847100       0.000000
                                                         0.336800       0.365725
                                                         0.128500       0.000000
                          3       4    4pz               2.094000       0.000000
                                                         0.847100       0.000000
                                                         0.336800       0.365725
[...]
   459 Broy./Diag. 0.10E+00    7.1     0.01896785      -150.1793725467 -7.62E-05
   460 Broy./Diag. 0.10E+00    7.1     0.02867304      -150.1793434228  2.91E-05
   461 Broy./Diag. 0.10E+00    7.1     0.04349906      -150.1793279359  1.55E-05
   462 Broy./Diag. 0.10E+00    7.1     0.06538349      -150.1793010186  2.69E-05
   463 Broy./Diag. 0.10E+00    7.1     0.09620490      -150.1792658427  3.52E-05
   464 Broy./Diag. 0.10E+00    7.1     0.13423135      -150.1793113803 -4.55E-05
   465 Broy./Diag. 0.10E+00    7.2     0.16780284      -150.1793422102 -3.08E-05
   466 Broy./Diag. 0.10E+00    7.2     0.17330391      -150.1791934913  1.49E-04
   467 Broy./Diag. 0.10E+00    7.1     0.18000768      -150.1792178448 -2.44E-05
   468 Broy./Diag. 0.10E+00    7.2     0.20411120      -150.1797721489 -5.54E-04
   469 Broy./Diag. 0.10E+00    7.2     0.18887176      -150.1809287513 -1.16E-03
   470 Broy./Diag. 0.10E+00    7.1     0.15243761      -150.1824980467 -1.57E-03
   471 Broy./Diag. 0.10E+00    7.1     0.11338534      -150.1839794106 -1.48E-03
   472 Broy./Diag. 0.10E+00    7.1     0.08061421      -150.1850137685 -1.03E-03
   473 Broy./Diag. 0.10E+00    7.1     0.05596575      -150.1856777646 -6.64E-04
   474 Broy./Diag. 0.10E+00    7.2     0.03811128      -150.1860098511 -3.32E-04
   475 Broy./Diag. 0.10E+00    7.1     0.02208066      -150.1859206078  8.92E-05
   476 Broy./Diag. 0.10E+00    7.1     0.03847148      -150.1922286261 -6.31E-03
   477 Broy./Diag. 0.10E+00    7.1     0.05101646      -150.2013560885 -9.13E-03
   478 Broy./Diag. 0.10E+00    7.2     0.10145246      -150.2189485274 -1.76E-02

 *** WARNING in pw/ps_wavelet_methods.F:238 :: Density non-zero on the ***
 *** edges of the unit cell: wrong results in WAVELET solver           ***

   479 Broy./Diag. 0.10E+00    7.1     0.20992362      -150.2435251700 -2.46E-02

 *** WARNING in pw/ps_wavelet_methods.F:238 :: Density non-zero on the ***
 *** edges of the unit cell: wrong results in WAVELET solver           ***

   480 Broy./Diag. 0.10E+00    7.1     0.26881220      -150.2485330782 -5.01E-03

 *** WARNING in pw/ps_wavelet_methods.F:238 :: Density non-zero on the ***
 *** edges of the unit cell: wrong results in WAVELET solver           ***

   481 Broy./Diag. 0.10E+00    7.1     0.20421797      -150.2582868899 -9.75E-03

 *** WARNING in pw/ps_wavelet_methods.F:238 :: Density non-zero on the ***
 *** edges of the unit cell: wrong results in WAVELET solver           ***

   482 Broy./Diag. 0.10E+00    7.2     0.11078071      -150.3172021600 -5.89E-02

 *** WARNING in pw/ps_wavelet_methods.F:238 :: Density non-zero on the ***
 *** edges of the unit cell: wrong results in WAVELET solver           ***

   483 Broy./Diag. 0.10E+00    7.1     0.09318944      -150.1937552978  1.23E-01

 *** WARNING in pw/ps_wavelet_methods.F:238 :: Density non-zero on the ***
 *** edges of the unit cell: wrong results in WAVELET solver           ***

   484 Broy./Diag. 0.10E+00    7.1     0.08748684      -150.2067334301 -1.30E-02

 *** WARNING in pw/ps_wavelet_methods.F:238 :: Density non-zero on the ***
 *** edges of the unit cell: wrong results in WAVELET solver           ***

   485 Broy./Diag. 0.10E+00    7.1     0.03323366      -150.0504336139  1.56E-01

 *** WARNING in pw/ps_wavelet_methods.F:238 :: Density non-zero on the ***
 *** edges of the unit cell: wrong results in WAVELET solver           ***

   486 Broy./Diag. 0.10E+00    7.1     0.05184318      -150.0626695333 -1.22E-02

 *** WARNING in pw/ps_wavelet_methods.F:238 :: Density non-zero on the ***
 *** edges of the unit cell: wrong results in WAVELET solver           ***

   487 Broy./Diag. 0.10E+00    7.1     0.07504953      -150.1048416697 -4.22E-02

 *** WARNING in pw/ps_wavelet_methods.F:238 :: Density non-zero on the ***
 *** edges of the unit cell: wrong results in WAVELET solver           ***

   488 Broy./Diag. 0.10E+00    7.1     0.22075242      -150.1145751571 -9.73E-03

 *** WARNING in pw/ps_wavelet_methods.F:238 :: Density non-zero on the ***
 *** edges of the unit cell: wrong results in WAVELET solver           ***

   489 Broy./Diag. 0.10E+00    7.1     0.24367207      -150.1542543615 -3.97E-02

 *** WARNING in pw/ps_wavelet_methods.F:238 :: Density non-zero on the ***
 *** edges of the unit cell: wrong results in WAVELET solver           ***

   490 Broy./Diag. 0.10E+00    7.2     0.32181532      -150.2418495621 -8.76E-02

 *** WARNING in pw/ps_wavelet_methods.F:238 :: Density non-zero on the ***
 *** edges of the unit cell: wrong results in WAVELET solver           ***

   491 Broy./Diag. 0.10E+00    7.1     0.03998344      -150.3212073468 -7.94E-02

 *** WARNING in pw/ps_wavelet_methods.F:238 :: Density non-zero on the ***
 *** edges of the unit cell: wrong results in WAVELET solver           ***

   492 Broy./Diag. 0.10E+00    7.2     0.06467404      -150.2613206845  5.99E-02

 *** WARNING in pw/ps_wavelet_methods.F:238 :: Density non-zero on the ***
 *** edges of the unit cell: wrong results in WAVELET solver           ***

   493 Broy./Diag. 0.10E+00    7.1     0.05593532      -150.0980433801  1.63E-01

 *** WARNING in pw/ps_wavelet_methods.F:238 :: Density non-zero on the ***
 *** edges of the unit cell: wrong results in WAVELET solver           ***

   494 Broy./Diag. 0.10E+00    7.1     0.05476268      -150.1601742191 -6.21E-02

 *** WARNING in pw/ps_wavelet_methods.F:238 :: Density non-zero on the ***
 *** edges of the unit cell: wrong results in WAVELET solver           ***

   495 Broy./Diag. 0.10E+00    7.3     0.06010630      -150.1970918876 -3.69E-02

 *** WARNING in pw/ps_wavelet_methods.F:238 :: Density non-zero on the ***
 *** edges of the unit cell: wrong results in WAVELET solver           ***

   496 Broy./Diag. 0.10E+00    7.1     0.05243060      -150.1931943250  3.90E-03

 *** WARNING in pw/ps_wavelet_methods.F:238 :: Density non-zero on the ***
 *** edges of the unit cell: wrong results in WAVELET solver           ***

   497 Broy./Diag. 0.10E+00    7.1     0.04573010      -150.1872562487  5.94E-03

 *** WARNING in pw/ps_wavelet_methods.F:238 :: Density non-zero on the ***
 *** edges of the unit cell: wrong results in WAVELET solver           ***

   498 Broy./Diag. 0.10E+00    7.2     0.20436789      -150.2810581863 -9.38E-02

 *** WARNING in pw/ps_wavelet_methods.F:238 :: Density non-zero on the ***
 *** edges of the unit cell: wrong results in WAVELET solver           ***

   499 Broy./Diag. 0.10E+00    7.1     0.24944088      -150.5310884926 -2.50E-01

 *** WARNING in pw/ps_wavelet_methods.F:238 :: Density non-zero on the ***
 *** edges of the unit cell: wrong results in WAVELET solver           ***

   500 Broy./Diag. 0.10E+00    7.1     0.27563758      -150.5604861558 -2.94E-02

  Leaving inner SCF loop after reaching   500 steps.


  Electronic density on regular grids:        -11.3733274374        4.6266725626
  Core density on regular grids:               16.0000000000        0.0000000000
  Hard and soft densities (Lebedev):          -35.8395016454      -31.2495909229
  Total Rho_soft + Rho1_hard - Rho1_soft      -15.9632381599
  Total charge density (r-space):               0.0367618401
  Total Rho_soft + Rho0_soft (g-space):         0.0367617311

  Overlap energy of the core charge distribution:               0.00000000200246
  Self energy of the core charge distribution:               -145.82024045573709
  Core Hamiltonian energy:                                    -13.25093701059163
  Hartree energy:                                              24.86697743264936
  Exchange-correlation energy:                                 -5.24668967021343
  Hartree-Fock Exchange energy:                                -4.06306716573091

  GAPW| Exc from hard and soft atomic rho1:                    -8.00136247435608
  GAPW| local Eh = 1 center integrals:                          0.95483318614738

  Total energy:                                              -150.56048615582998

 *******************************************************************************
 *   ___                                                                       *
 *  /   \                                                                      *
 * [ABORT]                                                                     *
 *  \___/     SCF run NOT converged. To continue the calculation regardless,   *
 *    |             please set the keyword IGNORE_CONVERGENCE_FAILURE.         *
 *  O/|                                                                        *
 * /| |                                                                        *
 * / \                                                            qs_scf.F:611 *
 *******************************************************************************


 ===== Routine Calling Stack ===== 

            3 scf_env_do_scf
            2 qs_energies
            1 CP2K

 *******************************************************************************
 *   ___                                                                       *
 *  /   \                                                                      *
 * [ABORT]                                                                     *
 *  \___/     SCF run NOT converged. To continue the calculation regardless,   *
 *    |             please set the keyword IGNORE_CONVERGENCE_FAILURE.         *
 *  O/|                                                                        *
 * /| |                                                                        *
 * / \                                                            qs_scf.F:611 *
 *******************************************************************************


 ===== Routine Calling Stack ===== 

            3 scf_env_do_scf
            2 qs_energies
            1 CP2K

 *******************************************************************************
 *   ___                                                                       *
 *  /   \                                                                      *
 * [ABORT]                                                                     *
 *  \___/     SCF run NOT converged. To continue the calculation regardless,   *
 *    |             please set the keyword IGNORE_CONVERGENCE_FAILURE.         *
 *  O/|                                                                        *
 * /| |                                                                        *
 * / \                                                            qs_scf.F:611 *
 *******************************************************************************


 ===== Routine Calling Stack ===== 

            3 scf_env_do_scf
            2 qs_energies
            1 CP2K

 *******************************************************************************
 *   ___                                                                       *
 *  /   \                                                                      *
 * [ABORT]                                                                     *
 *  \___/     SCF run NOT converged. To continue the calculation regardless,   *
 *    |             please set the keyword IGNORE_CONVERGENCE_FAILURE.         *
 *  O/|                                                                        *
 * /| |                                                                        *
 * / \                                                            qs_scf.F:611 *
 *******************************************************************************


 ===== Routine Calling Stack ===== 

            3 scf_env_do_scf
            2 qs_energies
            1 CP2K

 *******************************************************************************
 *   ___                                                                       *
 *  /   \                                                                      *
 * [ABORT]                                                                     *
 *  \___/     SCF run NOT converged. To continue the calculation regardless,   *
 *    |             please set the keyword IGNORE_CONVERGENCE_FAILURE.         *
 *  O/|                                                                        *
 * /| |                                                                        *
 * / \                                                            qs_scf.F:611 *
 *******************************************************************************


 ===== Routine Calling Stack ===== 

            3 scf_env_do_scf
            2 qs_energies
            1 CP2K

 *******************************************************************************
 *   ___                                                                       *
 *  /   \                                                                      *
 * [ABORT]                                                                     *
 *  \___/     SCF run NOT converged. To continue the calculation regardless,   *
 *    |             please set the keyword IGNORE_CONVERGENCE_FAILURE.         *
 *  O/|                                                                        *
 * /| |                                                                        *
 * / \                                                            qs_scf.F:611 *
 *******************************************************************************


 ===== Routine Calling Stack ===== 

            3 scf_env_do_scf
            2 qs_energies
            1 CP2K

 *******************************************************************************
 *   ___                                                                       *
 *  /   \                                                                      *
 * [ABORT]                                                                     *
 *  \___/     SCF run NOT converged. To continue the calculation regardless,   *
 *    |             please set the keyword IGNORE_CONVERGENCE_FAILURE.         *
 *  O/|                                                                        *
 * /| |                                                                        *
 * / \                                                            qs_scf.F:611 *
 *******************************************************************************


 ===== Routine Calling Stack ===== 

            3 scf_env_do_scf
            2 qs_energies
            1 CP2K

 *******************************************************************************
 *   ___                                                                       *
 *  /   \                                                                      *
 * [ABORT]                                                                     *
 *  \___/     SCF run NOT converged. To continue the calculation regardless,   *
 *    |             please set the keyword IGNORE_CONVERGENCE_FAILURE.         *
 *  O/|                                                                        *
 * /| |                                                                        *
 * / \                                                            qs_scf.F:611 *
 *******************************************************************************


 ===== Routine Calling Stack ===== 

            3 scf_env_do_scf
            2 qs_energies
            1 CP2K

 *******************************************************************************
 *   ___                                                                       *
 *  /   \                                                                      *
 * [ABORT]                                                                     *
 *  \___/     SCF run NOT converged. To continue the calculation regardless,   *
 *    |             please set the keyword IGNORE_CONVERGENCE_FAILURE.         *
 *  O/|                                                                        *
 * /| |                                                                        *
 * / \                                                            qs_scf.F:611 *
 *******************************************************************************


 ===== Routine Calling Stack ===== 

            3 scf_env_do_scf
            2 qs_energies
            1 CP2K

 *******************************************************************************
 *   ___                                                                       *
 *  /   \                                                                      *
 * [ABORT]                                                                     *
 *  \___/     SCF run NOT converged. To continue the calculation regardless,   *
 *    |             please set the keyword IGNORE_CONVERGENCE_FAILURE.         *
 *  O/|                                                                        *
 * /| |                                                                        *
 * / \                                                            qs_scf.F:611 *
 *******************************************************************************


 ===== Routine Calling Stack ===== 

            3 scf_env_do_scf
            2 qs_energies
            1 CP2K

 *******************************************************************************
 *   ___                                                                       *
 *  /   \                                                                      *
 * [ABORT]                                                                     *
 *  \___/     SCF run NOT converged. To continue the calculation regardless,   *
 *    |             please set the keyword IGNORE_CONVERGENCE_FAILURE.         *
 *  O/|                                                                        *
 * /| |                                                                        *
 * / \                                                            qs_scf.F:611 *
 *******************************************************************************


 ===== Routine Calling Stack ===== 

            3 scf_env_do_scf
            2 qs_energies
            1 CP2K

 *******************************************************************************
 *   ___                                                                       *
 *  /   \                                                                      *
 * [ABORT]                                                                     *
 *  \___/     SCF run NOT converged. To continue the calculation regardless,   *
 *    |             please set the keyword IGNORE_CONVERGENCE_FAILURE.         *
 *  O/|                                                                        *
 * /| |                                                                        *
 * / \                                                            qs_scf.F:611 *
 *******************************************************************************


 ===== Routine Calling Stack ===== 

            3 scf_env_do_scf
            2 qs_energies
            1 CP2K

 *******************************************************************************
 *   ___                                                                       *
 *  /   \                                                                      *
 * [ABORT]                                                                     *
 *  \___/     SCF run NOT converged. To continue the calculation regardless,   *
 *    |             please set the keyword IGNORE_CONVERGENCE_FAILURE.         *
 *  O/|                                                                        *
 * /| |                                                                        *
 * / \                                                            qs_scf.F:611 *
 *******************************************************************************


 ===== Routine Calling Stack ===== 

            3 scf_env_do_scf
            2 qs_energies
            1 CP2K
