 DBCSR| CPU Multiplication driver                                           BLAS (U)
 DBCSR| Multrec recursion limit                                              512 (U)
 DBCSR| Multiplication stack size                                           1000 (D)
 DBCSR| Maximum elements for images                                    UNLIMITED (U)
 DBCSR| Multiplicative factor virtual images                                   1 (U)
 DBCSR| Use multiplication densification                                       T (D)
 DBCSR| Multiplication size stacks                                             3 (U)
 DBCSR| Use memory pool for CPU allocation                                     F (U)
 DBCSR| Number of 3D layers                                               SINGLE (U)
 DBCSR| Use MPI memory allocation                                              F (U)
 DBCSR| Use RMA algorithm                                                      F (U)
 DBCSR| Use Communication thread                                               T (U)
 DBCSR| Communication thread load                                             75 (D)
 DBCSR| MPI: My process id                                                     0
 DBCSR| MPI: Number of processes                                              48
 DBCSR| OMP: Current number of threads                                         4
 DBCSR| OMP: Max number of threads                                             4
 DBCSR| Split modifier for TAS multiplication algorithm                  1.0E+00 (U)


  **** **** ******  **  PROGRAM STARTED AT               2025-03-19 01:05:51.517
 ***** ** ***  *** **   PROGRAM STARTED ON                          i03r07c04s03
 **    ****   ******    PROGRAM STARTED BY                               di38fab
 ***** **    ** ** **   PROGRAM PROCESS ID                               2867030
  **** **  *******  **  PROGRAM STARTED IN /hppfs/scratch/04/di38fab/05_MOL/W4-1
                                           1+ALK/so/aug-cc-pVDZ/GW+BSE

 CP2K| version string:                 CP2K version 2025.1 (Development Version)
 CP2K| source code revision number:                                  git:d2e611a
 CP2K| cp2kflags: omp libint fftw3 libxc parallel scalapack max_contr=4         
 CP2K| is freely available from                            https://www.cp2k.org/
 CP2K| Program compiled at                       Thu 06 Mar 2025 05:09:20 PM CET
 CP2K| Program compiled on                                               login02
 CP2K| Program compiled for                                        Supermuc-foss
 CP2K| Data directory path                  /hppfs/work/pn36zo/di38fab/cp2k/data
 CP2K| Input file name                                                    GW.inp

 GLOBAL| Force Environment number                                              1
 GLOBAL| Basis set file name            /hppfs/scratch/04/di38fab/04_TMD/BASIS_A
 GLOBAL| Potential file name            /hppfs/work/pn36zo/di38fab/cp2k/data/ALL
 GLOBAL| MM Potential file name                                     MM_POTENTIAL
 GLOBAL| Coordinate file name                                      __STD_INPUT__
 GLOBAL| Method name                                                        CP2K
 GLOBAL| Project name                                                       MoS2
 GLOBAL| Run type                                                         ENERGY
 GLOBAL| FFT library                                                       FFTW3
 GLOBAL| Diagonalization library                                       ScaLAPACK
 GLOBAL| DGEMM library                                                      BLAS
 GLOBAL| Orthonormality check for eigenvectors                          DISABLED
 GLOBAL| Matrix multiplication library                                 ScaLAPACK
 GLOBAL| All-to-all communication in single precision                          F
 GLOBAL| FFTs using library dependent lengths                                  F
 GLOBAL| Grid backend                                                       AUTO
 GLOBAL| Global print level                                               MEDIUM
 GLOBAL| MPI I/O enabled                                                       T
 GLOBAL| Total number of message passing processes                            48
 GLOBAL| Number of threads for this process                                    4
 GLOBAL| This output is from process                                           0
 GLOBAL| OpenMP stack size per thread (OMP_STACKSIZE)                    default
 GLOBAL| CPU model name             Intel(R) Xeon(R) Platinum 8174 CPU @ 3.10GHz

 MEMORY| system memory details [Kb]
 MEMORY|                        rank 0           min           max       average
 MEMORY| MemTotal             98436664      98436660      98436708      98436673
 MEMORY| MemFree              83786048      83786048      84467936      84065055
 MEMORY| Buffers                     0             0             0             0
 MEMORY| Cached                2414916       2385744       2442744       2412833
 MEMORY| Slab                  1250008       1165004       1253708       1226927
 MEMORY| SReclaimable           274152        262672        274152        267237
 MEMORY| MemLikelyFree        86475116      86475116      87116352      86745125


 *** Fundamental physical constants (SI units) ***

 *** Literature: B. J. Mohr and B. N. Taylor,
 ***             CODATA recommended values of the fundamental physical
 ***             constants: 2006, Web Version 5.1
 ***             http://physics.nist.gov/constants

 Speed of light in vacuum [m/s]                             2.99792458000000E+08
 Magnetic constant or permeability of vacuum [N/A**2]       1.25663706143592E-06
 Electric constant or permittivity of vacuum [F/m]          8.85418781762039E-12
 Planck constant (h) [J*s]                                  6.62606896000000E-34
 Planck constant (h-bar) [J*s]                              1.05457162825177E-34
 Elementary charge [C]                                      1.60217648700000E-19
 Electron mass [kg]                                         9.10938215000000E-31
 Electron g factor [ ]                                     -2.00231930436220E+00
 Proton mass [kg]                                           1.67262163700000E-27
 Fine-structure constant                                    7.29735253760000E-03
 Rydberg constant [1/m]                                     1.09737315685270E+07
 Avogadro constant [1/mol]                                  6.02214179000000E+23
 Boltzmann constant [J/K]                                   1.38065040000000E-23
 Atomic mass unit [kg]                                      1.66053878200000E-27
 Bohr radius [m]                                            5.29177208590000E-11

 *** Conversion factors ***

 [u] -> [a.u.]                                              1.82288848426455E+03
 [Angstrom] -> [Bohr] = [a.u.]                              1.88972613288564E+00
 [a.u.] = [Bohr] -> [Angstrom]                              5.29177208590000E-01
 [a.u.] -> [s]                                              2.41888432650478E-17
 [a.u.] -> [fs]                                             2.41888432650478E-02
 [a.u.] -> [J]                                              4.35974393937059E-18
 [a.u.] -> [N]                                              8.23872205491840E-08
 [a.u.] -> [K]                                              3.15774647902944E+05
 [a.u.] -> [kJ/mol]                                         2.62549961709828E+03
 [a.u.] -> [kcal/mol]                                       6.27509468713739E+02
 [a.u.] -> [Pa]                                             2.94210107994716E+13
 [a.u.] -> [bar]                                            2.94210107994716E+08
 [a.u.] -> [atm]                                            2.90362800883016E+08
 [a.u.] -> [eV]                                             2.72113838565563E+01
 [a.u.] -> [Hz]                                             6.57968392072181E+15
 [a.u.] -> [1/cm] (wave numbers)                            2.19474631370540E+05
 [a.u./Bohr**2] -> [1/cm]                                   5.14048714338585E+03
 

 CELL_TOP| Volume [angstrom^3]:                                     27000.000000
 CELL_TOP| Vector a [angstrom    30.000     0.000     0.000   |a| =    30.000000
 CELL_TOP| Vector b [angstrom     0.000    30.000     0.000   |b| =    30.000000
 CELL_TOP| Vector c [angstrom     0.000     0.000    30.000   |c| =    30.000000
 CELL_TOP| Angle (b,c), alpha [degree]:                                90.000000
 CELL_TOP| Angle (a,c), beta  [degree]:                                90.000000
 CELL_TOP| Angle (a,b), gamma [degree]:                                90.000000
 CELL_TOP| Numerically orthorhombic:                                         YES
 CELL_TOP| Periodicity                                                      NONE

 GENERATE|  Preliminary Number of Bonds generated:                             0
 GENERATE|  Achieved consistency in connectivity generation.

 CELL| Volume [angstrom^3]:                                         27000.000000
 CELL| Vector a [angstrom]:      30.000     0.000     0.000   |a| =    30.000000
 CELL| Vector b [angstrom]:       0.000    30.000     0.000   |b| =    30.000000
 CELL| Vector c [angstrom]:       0.000     0.000    30.000   |c| =    30.000000
 CELL| Angle (b,c), alpha [degree]:                                    90.000000
 CELL| Angle (a,c), beta  [degree]:                                    90.000000
 CELL| Angle (a,b), gamma [degree]:                                    90.000000
 CELL| Numerically orthorhombic:                                             YES
 CELL| Periodicity                                                          NONE

 CELL_REF| Volume [angstrom^3]:                                     27000.000000
 CELL_REF| Vector a [angstrom    30.000     0.000     0.000   |a| =    30.000000
 CELL_REF| Vector b [angstrom     0.000    30.000     0.000   |b| =    30.000000
 CELL_REF| Vector c [angstrom     0.000     0.000    30.000   |c| =    30.000000
 CELL_REF| Angle (b,c), alpha [degree]:                                90.000000
 CELL_REF| Angle (a,c), beta  [degree]:                                90.000000
 CELL_REF| Angle (a,b), gamma [degree]:                                90.000000
 CELL_REF| Numerically orthorhombic:                                         YES
 CELL_REF| Periodicity                                                      NONE

 *******************************************************************************
 *******************************************************************************
 **                                                                           **
 **     #####                         ##              ##                      **
 **    ##   ##            ##          ##              ##                      **
 **   ##     ##                       ##            ######                    **
 **   ##     ##  ##   ##  ##   #####  ##  ##   ####   ##    #####    #####    **
 **   ##     ##  ##   ##  ##  ##      ## ##   ##      ##   ##   ##  ##   ##   **
 **   ##  ## ##  ##   ##  ##  ##      ####     ###    ##   ######   ######    **
 **    ##  ###   ##   ##  ##  ##      ## ##      ##   ##   ##       ##        **
 **     #######   #####   ##   #####  ##  ##  ####    ##    #####   ##        **
 **           ##                                                    ##        **
 **                                                                           **
 **                                                ... make the atoms dance   **
 **                                                                           **
 **            Copyright (C) by CP2K developers group (2000-2025)             **
 **                      J. Chem. Phys. 152, 194103 (2020)                    **
 **                                                                           **
 *******************************************************************************

 DFT| Spin restricted Kohn-Sham (RKS) calculation                            RKS
 DFT| Multiplicity                                                             1
 DFT| Number of spin states                                                    1
 DFT| Charge                                                                   0
 DFT| Self-interaction correction (SIC)                                       NO
 DFT| Cutoffs: density                                              1.000000E-10
 DFT|          gradient                                             1.000000E-10
 DFT|          tau                                                  1.000000E-10
 DFT|          cutoff_smoothing_range                               0.000000E+00
 DFT| XC density smoothing                                                  NONE
 DFT| XC derivatives                                                          PW

 FUNCTIONAL| PBE:
 FUNCTIONAL| J.P.Perdew, K.Burke, M.Ernzerhof, Phys. Rev. Letter, vol. 77, n 18,
 FUNCTIONAL|  pp. 3865-3868, (1996)sx=0.750sc=1.000{spin unpolarized}           


 QS| Method:                                                                GAPW
 QS| Density plane wave grid type                        NON-SPHERICAL FULLSPACE
 QS| Number of grid levels:                                                    4
 QS| Density cutoff [a.u.]:                                                250.0
 QS| Multi grid cutoff [a.u.]: 1) grid level                               250.0
 QS|                           2) grid level                                83.3
 QS|                           3) grid level                                27.8
 QS|                           4) grid level                                 9.3
 QS| Grid level progression factor:                                          3.0
 QS| Relative density cutoff [a.u.]:                                        50.0
 QS| Interaction thresholds: eps_pgf_orb:                                1.0E-12
 QS|                         eps_filter_matrix:                          0.0E+00
 QS|                         eps_core_charge:                            1.0E-14
 QS|                         eps_rho_gspace:                             1.0E-12
 QS|                         eps_rho_rspace:                             1.0E-12
 QS|                         eps_gvg_rspace:                             1.0E-06
 QS|                         eps_ppl:                                    1.0E-02
 QS|                         eps_ppnl:                                   1.0E-08
 QS| GAPW|      One center basis from orbital basis primitives
 QS| GAPW|                   eps_fit:                                    1.0E-04
 QS| GAPW|                   eps_iso:                                    1.0E-12
 QS| GAPW|                   eps_svd:                                    1.0E-08
 QS| GAPW|                   eps_cpc:                                    1.0E-12
 QS| GAPW|   atom-r-grid: quadrature:                                     GC_LOG
 QS| GAPW|      atom-s-grid:  max l :                                          4
 QS| GAPW|      max_l_rho0 :                                                   2


 ATOMIC KIND INFORMATION

  1. Atomic kind: S                                     Number of atoms:       1

     Orbital Basis Set                                               aug-cc-pVDZ

       Number of orbital shell sets:                                           6
       Number of orbital shells:                                              11
       Number of primitive Cartesian functions:                               24
       Number of Cartesian basis functions:                                   29
       Number of spherical basis functions:                                   27
       Norm type:                                                              2

       Normalised Cartesian orbitals:

                        Set   Shell   Orbital            Exponent    Coefficient

                          1       1    1px               0.039900       0.025419
                          1       1    1py               0.039900       0.025419
                          1       1    1pz               0.039900       0.025419

                          2       1    1s                0.050700       0.076149

                          3       1    1px             399.700000      11.400936
                                                        94.190000      14.292268
                                                        29.750000      14.286128
                                                        10.770000       9.842934
                                                         4.119000       3.839926
                                                         1.625000       0.539735
                                                         0.472600       0.005705
                                                         0.140700      -0.000007
                          3       1    1py             399.700000      11.400936
                                                        94.190000      14.292268
                                                        29.750000      14.286128
                                                        10.770000       9.842934
                                                         4.119000       3.839926
                                                         1.625000       0.539735
                                                         0.472600       0.005705
                                                         0.140700      -0.000007
                          3       1    1pz             399.700000      11.400936
                                                        94.190000      14.292268
                                                        29.750000      14.286128
                                                        10.770000       9.842934
                                                         4.119000       3.839926
                                                         1.625000       0.539735
                                                         0.472600       0.005705
                                                         0.140700      -0.000007

                          3       2    2px             399.700000      -2.961452
                                                        94.190000      -3.620726
                                                        29.750000      -3.871231
                                                        10.770000      -2.599246
                                                         4.119000      -1.237867
                                                         1.625000       0.078954
                                                         0.472600       0.313663
                                                         0.140700       0.065687
                          3       2    2py             399.700000      -2.961452
                                                        94.190000      -3.620726
                                                        29.750000      -3.871231
                                                        10.770000      -2.599246
                                                         4.119000      -1.237867
                                                         1.625000       0.078954
                                                         0.472600       0.313663
                                                         0.140700       0.065687
                          3       2    2pz             399.700000      -2.961452
                                                        94.190000      -3.620726
                                                        29.750000      -3.871231
                                                        10.770000      -2.599246
                                                         4.119000      -1.237867
                                                         1.625000       0.078954
                                                         0.472600       0.313663
                                                         0.140700       0.065687

                          3       3    3px             399.700000       0.000000
                                                        94.190000       0.000000
                                                        29.750000       0.000000
                                                        10.770000       0.000000
                                                         4.119000       0.000000
                                                         1.625000       0.000000
                                                         0.472600       0.000000
                                                         0.140700       0.122831
                          3       3    3py             399.700000       0.000000
                                                        94.190000       0.000000
                                                        29.750000       0.000000
                                                        10.770000       0.000000
                                                         4.119000       0.000000
                                                         1.625000       0.000000
                                                         0.472600       0.000000
                                                         0.140700       0.122831
                          3       3    3pz             399.700000       0.000000
                                                        94.190000       0.000000
                                                        29.750000       0.000000
                                                        10.770000       0.000000
                                                         4.119000       0.000000
                                                         1.625000       0.000000
                                                         0.472600       0.000000
                                                         0.140700       0.122831

                          4       1    1dx2              0.152000       0.060903
                          4       1    1dxy              0.152000       0.105486
                          4       1    1dxz              0.152000       0.105486
                          4       1    1dy2              0.152000       0.060903
                          4       1    1dyz              0.152000       0.105486
                          4       1    1dz2              0.152000       0.060903

                          5       1    1s           110800.000000       1.071832
                                                     16610.000000       2.002384
                                                      3781.000000       3.423404
                                                      1071.000000       5.376879
                                                       349.800000       7.413604
                                                       126.300000       8.148781
                                                        49.260000       5.584810
                                                        20.160000       1.564869
                                                         5.720000       0.047178
                                                         2.182000      -0.003807
                                                         0.432700       0.000323
                                                         0.157000      -0.000065

                          5       2    2s           110800.000000      -0.297369
                                                     16610.000000      -0.550248
                                                      3781.000000      -0.961087
                                                      1071.000000      -1.503098
                                                       349.800000      -2.241502
                                                       126.300000      -2.671755
                                                        49.260000      -2.646951
                                                        20.160000      -0.836474
                                                         5.720000       1.352816
                                                         2.182000       0.776829
                                                         0.432700       0.015086
                                                         0.157000      -0.001683

                          5       3    3s           110800.000000       0.086166
                                                     16610.000000       0.160047
                                                      3781.000000       0.278185
                                                      1071.000000       0.438949
                                                       349.800000       0.651218
                                                       126.300000       0.795827
                                                        49.260000       0.794922
                                                        20.160000       0.280213
                                                         5.720000      -0.546916
                                                         2.182000      -0.502714
                                                         0.432700       0.240627
                                                         0.157000       0.098999

                          5       4    4s           110800.000000       0.000000
                                                     16610.000000       0.000000
                                                      3781.000000       0.000000
                                                      1071.000000       0.000000
                                                       349.800000       0.000000
                                                       126.300000       0.000000
                                                        49.260000       0.000000
                                                        20.160000       0.000000
                                                         5.720000       0.000000
                                                         2.182000       0.000000
                                                         0.432700       0.000000
                                                         0.157000       0.177760

                          6       1    1dx2              0.479000       0.453938
                          6       1    1dxy              0.479000       0.786244
                          6       1    1dxz              0.479000       0.786244
                          6       1    1dy2              0.479000       0.453938
                          6       1    1dyz              0.479000       0.786244
                          6       1    1dz2              0.479000       0.453938

     RI Auxiliary Basis Set                                    aug-cc-pVDZ-OPTRI

       Number of orbital shell sets:                                          18
       Number of orbital shells:                                              18
       Number of primitive Cartesian functions:                               18
       Number of Cartesian basis functions:                                   89
       Number of spherical basis functions:                                   70
       Norm type:                                                              2

       Normalised Cartesian orbitals:

                        Set   Shell   Orbital            Exponent    Coefficient

                          1       1    1px               0.073815       0.054843
                          1       1    1py               0.073815       0.054843
                          1       1    1pz               0.073815       0.054843

                          2       1    1s                0.087220       0.114386

                          3       1    1px               0.232976       0.230717
                          3       1    1py               0.232976       0.230717
                          3       1    1pz               0.232976       0.230717

                          4       1    1s                0.255123       0.255842

                          5       1    1dx2              0.300821       0.201117
                          5       1    1dxy              0.300821       0.348345
                          5       1    1dxz              0.300821       0.348345
                          5       1    1dy2              0.300821       0.201117
                          5       1    1dyz              0.300821       0.348345
                          5       1    1dz2              0.300821       0.201117

                          6       1    1fx3              0.318226       0.111972
                          6       1    1fx2y             0.318226       0.250377
                          6       1    1fx2z             0.318226       0.250377
                          6       1    1fxy2             0.318226       0.250377
                          6       1    1fxyz             0.318226       0.433666
                          6       1    1fxz2             0.318226       0.250377
                          6       1    1fy3              0.318226       0.111972
                          6       1    1fy2z             0.318226       0.250377
                          6       1    1fyz2             0.318226       0.250377
                          6       1    1fz3              0.318226       0.111972

                          7       1    1gx4              0.746960       0.498888
                          7       1    1gx3y             0.746960       1.319934
                          7       1    1gx3z             0.746960       1.319934
                          7       1    1gx2y2            0.746960       1.704027
                          7       1    1gx2yz            0.746960       2.951462
                          7       1    1gx2z2            0.746960       1.704027
                          7       1    1gxy3             0.746960       1.319934
                          7       1    1gxy2z            0.746960       2.951462
                          7       1    1gxyz2            0.746960       2.951462
                          7       1    1gxz3             0.746960       1.319934
                          7       1    1gy4              0.746960       0.498888
                          7       1    1gy3z             0.746960       1.319934
                          7       1    1gy2z2            0.746960       1.704027
                          7       1    1gyz3             0.746960       1.319934
                          7       1    1gz4              0.746960       0.498888

                          8       1    1px               0.790521       1.062507
                          8       1    1py               0.790521       1.062507
                          8       1    1pz               0.790521       1.062507

                          9       1    1s                0.820379       0.614357

                         10       1    1fx3              0.834298       0.979326
                         10       1    1fx2y             0.834298       2.189839
                         10       1    1fx2z             0.834298       2.189839
                         10       1    1fxy2             0.834298       2.189839
                         10       1    1fxyz             0.834298       3.792912
                         10       1    1fxz2             0.834298       2.189839
                         10       1    1fy3              0.834298       0.979326
                         10       1    1fy2z             0.834298       2.189839
                         10       1    1fyz2             0.834298       2.189839
                         10       1    1fz3              0.834298       0.979326

                         11       1    1dx2              0.928523       1.445595
                         11       1    1dxy              0.928523       2.503844
                         11       1    1dxz              0.928523       2.503844
                         11       1    1dy2              0.928523       1.445595
                         11       1    1dyz              0.928523       2.503844
                         11       1    1dz2              0.928523       1.445595

                         12       1    1s                2.638023       1.475262

                         13       1    1px               2.682351       4.893106
                         13       1    1py               2.682351       4.893106
                         13       1    1pz               2.682351       4.893106

                         14       1    1fx3              5.046678      56.197506
                         14       1    1fx2y             5.046678     125.661443
                         14       1    1fx2z             5.046678     125.661443
                         14       1    1fxy2             5.046678     125.661443
                         14       1    1fxyz             5.046678     217.652004
                         14       1    1fxz2             5.046678     125.661443
                         14       1    1fy3              5.046678      56.197506
                         14       1    1fy2z             5.046678     125.661443
                         14       1    1fyz2             5.046678     125.661443
                         14       1    1fz3              5.046678      56.197506

                         15       1    1dx2              7.174550      51.766657
                         15       1    1dxy              7.174550      89.662481
                         15       1    1dxz              7.174550      89.662481
                         15       1    1dy2              7.174550      51.766657
                         15       1    1dyz              7.174550      89.662481
                         15       1    1dz2              7.174550      51.766657

                         16       1    1s                8.482869       3.542560

                         17       1    1px               9.101604      22.533959
                         17       1    1py               9.101604      22.533959
                         17       1    1pz               9.101604      22.533959

                         18       1    1dx2             17.402982     244.062402
                         18       1    1dxy             17.402982     422.728480
                         18       1    1dxz             17.402982     422.728480
                         18       1    1dy2             17.402982     244.062402
                         18       1    1dyz             17.402982     422.728480
                         18       1    1dz2             17.402982     244.062402

       Atomic covalent radius [Angstrom]:                                  1.020

       Atomic van der Waals radius [Angstrom]:                             1.800

     The atoms of this atomic kind are PAW atoms (GAPW):
       Hard Gaussian function radius:                                      1.512
       Rho0 radius:                                                        1.512
       Maximum GTO radius used for PAW projector construction:            24.566

     GAPW Soft Basis Set                                        aug-cc-pVDZ_soft

       Number of orbital shell sets:                                           6
       Number of orbital shells:                                              11
       Number of primitive Cartesian functions:                               11
       Number of Cartesian basis functions:                                   29
       Number of spherical basis functions:                                   27
       Norm type:                                                              2

       Normalised Cartesian orbitals:

                        Set   Shell   Orbital            Exponent    Coefficient

                          1       1    1px               0.039900       0.025419
                          1       1    1py               0.039900       0.025419
                          1       1    1pz               0.039900       0.025419

                          2       1    1s                0.050700       0.076149

                          3       1    1px               4.119000       3.839926
                                                         1.625000       0.539735
                                                         0.472600       0.005705
                                                         0.140700      -0.000007
                          3       1    1py               4.119000       3.839926
                                                         1.625000       0.539735
                                                         0.472600       0.005705
                                                         0.140700      -0.000007
                          3       1    1pz               4.119000       3.839926
                                                         1.625000       0.539735
                                                         0.472600       0.005705
                                                         0.140700      -0.000007

                          3       2    2px               4.119000      -1.237867
                                                         1.625000       0.078954
                                                         0.472600       0.313663
                                                         0.140700       0.065687
                          3       2    2py               4.119000      -1.237867
                                                         1.625000       0.078954
                                                         0.472600       0.313663
                                                         0.140700       0.065687
                          3       2    2pz               4.119000      -1.237867
                                                         1.625000       0.078954
                                                         0.472600       0.313663
                                                         0.140700       0.065687

                          3       3    3px               4.119000       0.000000
                                                         1.625000       0.000000
                                                         0.472600       0.000000
                                                         0.140700       0.122831
                          3       3    3py               4.119000       0.000000
                                                         1.625000       0.000000
                                                         0.472600       0.000000
                                                         0.140700       0.122831
                          3       3    3pz               4.119000       0.000000
                                                         1.625000       0.000000
                                                         0.472600       0.000000
                                                         0.140700       0.122831

                          4       1    1dx2              0.152000       0.060903
                          4       1    1dxy              0.152000       0.105486
                          4       1    1dxz              0.152000       0.105486
                          4       1    1dy2              0.152000       0.060903
                          4       1    1dyz              0.152000       0.105486
                          4       1    1dz2              0.152000       0.060903

                          5       1    1s                2.182000      -0.003807
                                                         0.432700       0.000323
                                                         0.157000      -0.000065

                          5       2    2s                2.182000       0.776829
                                                         0.432700       0.015086
                                                         0.157000      -0.001683

                          5       3    3s                2.182000      -0.502714
                                                         0.432700       0.240627
                                                         0.157000       0.098999

                          5       4    4s                2.182000       0.000000
                                                         0.432700       0.000000
                                                         0.157000       0.177760

                          6       1    1dx2              0.479000       0.453938
                          6       1    1dxy              0.479000       0.786244
                          6       1    1dxz              0.479000       0.786244
                          6       1    1dy2              0.479000       0.453938
                          6       1    1dyz              0.479000       0.786244
                          6       1    1dz2              0.479000       0.453938

     AE Potential information for                                            ALL

       Description:                                       All-electron potential
                                          Krack, Parrinello, PCCP 2, 2105 (2000)

       Gaussian exponent of the core charge distribution:               2.834467
       Electronic configuration (s p d ...):                           6  10   0

  2. Atomic kind: O                                     Number of atoms:       1

     Orbital Basis Set                                               aug-cc-pVDZ

       Number of orbital shell sets:                                           6
       Number of orbital shells:                                               9
       Number of primitive Cartesian functions:                               17
       Number of Cartesian basis functions:                                   25
       Number of spherical basis functions:                                   23
       Norm type:                                                              2

       Normalised Cartesian orbitals:

                        Set   Shell   Orbital            Exponent    Coefficient

                          1       1    1px               0.068560       0.050007
                          1       1    1py               0.068560       0.050007
                          1       1    1pz               0.068560       0.050007

                          2       1    1s                0.078960       0.106161

                          3       1    1px              17.700000       2.226162
                                                         3.854000       1.761976
                                                         1.046000       0.767079
                                                         0.275300       0.130905
                          3       1    1py              17.700000       2.226162
                                                         3.854000       1.761976
                                                         1.046000       0.767079
                                                         0.275300       0.130905
                          3       1    1pz              17.700000       2.226162
                                                         3.854000       1.761976
                                                         1.046000       0.767079
                                                         0.275300       0.130905

                          3       2    2px              17.700000       0.000000
                                                         3.854000       0.000000
                                                         1.046000       0.000000
                                                         0.275300       0.284248
                          3       2    2py              17.700000       0.000000
                                                         3.854000       0.000000
                                                         1.046000       0.000000
                                                         0.275300       0.284248
                          3       2    2pz              17.700000       0.000000
                                                         3.854000       0.000000
                                                         1.046000       0.000000
                                                         0.275300       0.284248

                          4       1    1s            11720.000000       0.569986
                                                      1759.000000       1.058881
                                                       400.800000       1.777168
                                                       113.700000       2.600710
                                                        37.030000       3.028357
                                                        13.270000       2.223504
                                                         5.025000       0.648119
                                                         1.013000       0.011124
                                                         0.302300      -0.000751

                          4       2    2s            11720.000000      -0.128448
                                                      1759.000000      -0.244491
                                                       400.800000      -0.400097
                                                       113.700000      -0.638166
                                                        37.030000      -0.758785
                                                        13.270000      -0.819649
                                                         5.025000      -0.279757
                                                         1.013000       0.401106
                                                         0.302300       0.166422

                          4       3    3s            11720.000000       0.000000
                                                      1759.000000       0.000000
                                                       400.800000       0.000000
                                                       113.700000       0.000000
                                                        37.030000       0.000000
                                                        13.270000       0.000000
                                                         5.025000       0.000000
                                                         1.013000       0.000000
                                                         0.302300       0.290562

                          5       1    1dx2              0.332000       0.239002
                          5       1    1dxy              0.332000       0.413963
                          5       1    1dxz              0.332000       0.413963
                          5       1    1dy2              0.332000       0.239002
                          5       1    1dyz              0.332000       0.413963
                          5       1    1dz2              0.332000       0.239002

                          6       1    1dx2              1.185000       2.215218
                          6       1    1dxy              1.185000       3.836871
                          6       1    1dxz              1.185000       3.836871
                          6       1    1dy2              1.185000       2.215218
                          6       1    1dyz              1.185000       3.836871
                          6       1    1dz2              1.185000       2.215218

     RI Auxiliary Basis Set                                    aug-cc-pVDZ-OPTRI

       Number of orbital shell sets:                                          17
       Number of orbital shells:                                              17
       Number of primitive Cartesian functions:                               17
       Number of Cartesian basis functions:                                   88
       Number of spherical basis functions:                                   69
       Norm type:                                                              2

       Normalised Cartesian orbitals:

                        Set   Shell   Orbital            Exponent    Coefficient

                          1       1    1px               0.102282       0.082450
                          1       1    1py               0.102282       0.082450
                          1       1    1pz               0.102282       0.082450

                          2       1    1s                0.117785       0.143294

                          3       1    1px               0.412399       0.471072
                          3       1    1py               0.412399       0.471072
                          3       1    1pz               0.412399       0.471072

                          4       1    1fx3              0.507566       0.320120
                          4       1    1fx2y             0.507566       0.715810
                          4       1    1fx2z             0.507566       0.715810
                          4       1    1fxy2             0.507566       0.715810
                          4       1    1fxyz             0.507566       1.239819
                          4       1    1fxz2             0.507566       0.715810
                          4       1    1fy3              0.507566       0.320120
                          4       1    1fy2z             0.507566       0.715810
                          4       1    1fyz2             0.507566       0.715810
                          4       1    1fz3              0.507566       0.320120

                          5       1    1dx2              0.533937       0.548930
                          5       1    1dxy              0.533937       0.950775
                          5       1    1dxz              0.533937       0.950775
                          5       1    1dy2              0.533937       0.548930
                          5       1    1dyz              0.533937       0.950775
                          5       1    1dz2              0.533937       0.548930

                          6       1    1px               0.892559       1.236620
                          6       1    1py               0.892559       1.236620
                          6       1    1pz               0.892559       1.236620

                          7       1    1s                0.910384       0.664245

                          8       1    1fx3              1.557922       3.991924
                          8       1    1fx2y             1.557922       8.926214
                          8       1    1fx2z             1.557922       8.926214
                          8       1    1fxy2             1.557922       8.926214
                          8       1    1fxyz             1.557922      15.460656
                          8       1    1fxz2             1.557922       8.926214
                          8       1    1fy3              1.557922       3.991924
                          8       1    1fy2z             1.557922       8.926214
                          8       1    1fyz2             1.557922       8.926214
                          8       1    1fz3              1.557922       3.991924

                          9       1    1gx4              1.763142       5.293287
                          9       1    1gx3y             1.763142      14.004722
                          9       1    1gx3z             1.763142      14.004722
                          9       1    1gx2y2            1.763142      18.080018
                          9       1    1gx2yz            1.763142      31.315511
                          9       1    1gx2z2            1.763142      18.080018
                          9       1    1gxy3             1.763142      14.004722
                          9       1    1gxy2z            1.763142      31.315511
                          9       1    1gxyz2            1.763142      31.315511
                          9       1    1gxz3             1.763142      14.004722
                          9       1    1gy4              1.763142       5.293287
                          9       1    1gy3z             1.763142      14.004722
                          9       1    1gy2z2            1.763142      18.080018
                          9       1    1gyz3             1.763142      14.004722
                          9       1    1gz4              1.763142       5.293287

                         10       1    1px               1.931778       3.246285
                         10       1    1py               1.931778       3.246285
                         10       1    1pz               1.931778       3.246285

                         11       1    1s                3.089291       1.660750

                         12       1    1dx2              3.533545      14.989186
                         12       1    1dxy              3.533545      25.962032
                         12       1    1dxz              3.533545      25.962032
                         12       1    1dy2              3.533545      14.989186
                         12       1    1dyz              3.533545      25.962032
                         12       1    1dz2              3.533545      14.989186

                         13       1    1px               4.180971       8.521902
                         13       1    1py               4.180971       8.521902
                         13       1    1pz               4.180971       8.521902

                         14       1    1fx3              4.802730      50.269300
                         14       1    1fx2y             4.802730     112.405572
                         14       1    1fx2z             4.802730     112.405572
                         14       1    1fxy2             4.802730     112.405572
                         14       1    1fxyz             4.802730     194.692161
                         14       1    1fxz2             4.802730     112.405572
                         14       1    1fy3              4.802730      50.269300
                         14       1    1fy2z             4.802730     112.405572
                         14       1    1fyz2             4.802730     112.405572
                         14       1    1fz3              4.802730      50.269300

                         15       1    1dx2              6.710063      46.044844
                         15       1    1dxy              6.710063      79.752009
                         15       1    1dxz              6.710063      79.752009
                         15       1    1dy2              6.710063      46.044844
                         15       1    1dyz              6.710063      79.752009
                         15       1    1dz2              6.710063      46.044844

                         16       1    1s               10.483182       4.152216

                         17       1    1dx2             12.742147     141.443836
                         17       1    1dxy             12.742147     244.987910
                         17       1    1dxz             12.742147     244.987910
                         17       1    1dy2             12.742147     141.443836
                         17       1    1dyz             12.742147     244.987910
                         17       1    1dz2             12.742147     141.443836

       Atomic covalent radius [Angstrom]:                                  0.730

       Atomic van der Waals radius [Angstrom]:                             1.520

     The atoms of this atomic kind are PAW atoms (GAPW):
       Hard Gaussian function radius:                                      1.512
       Rho0 radius:                                                        1.512
       Maximum GTO radius used for PAW projector construction:            24.566

     GAPW Soft Basis Set                                        aug-cc-pVDZ_soft

       Number of orbital shell sets:                                           6
       Number of orbital shells:                                               9
       Number of primitive Cartesian functions:                                9
       Number of Cartesian basis functions:                                   25
       Number of spherical basis functions:                                   23
       Norm type:                                                              2

       Normalised Cartesian orbitals:

                        Set   Shell   Orbital            Exponent    Coefficient

                          1       1    1px               0.068560       0.050007
                          1       1    1py               0.068560       0.050007
                          1       1    1pz               0.068560       0.050007

                          2       1    1s                0.078960       0.106161

                          3       1    1px               3.854000       1.761976
                                                         1.046000       0.767079
                                                         0.275300       0.130905
                          3       1    1py               3.854000       1.761976
                                                         1.046000       0.767079
                                                         0.275300       0.130905
                          3       1    1pz               3.854000       1.761976
                                                         1.046000       0.767079
                                                         0.275300       0.130905

                          3       2    2px               3.854000       0.000000
                                                         1.046000       0.000000
                                                         0.275300       0.284248
                          3       2    2py               3.854000       0.000000
                                                         1.046000       0.000000
                                                         0.275300       0.284248
                          3       2    2pz               3.854000       0.000000
                                                         1.046000       0.000000
                                                         0.275300       0.284248

                          4       1    1s                1.013000       0.011124
                                                         0.302300      -0.000751

                          4       2    2s                1.013000       0.401106
                                                         0.302300       0.166422

                          4       3    3s                1.013000       0.000000
                                                         0.302300       0.290562

                          5       1    1dx2              0.332000       0.239002
                          5       1    1dxy              0.332000       0.413963
                          5       1    1dxz              0.332000       0.413963
                          5       1    1dy2              0.332000       0.239002
                          5       1    1dyz              0.332000       0.413963
                          5       1    1dz2              0.332000       0.239002

                          6       1    1dx2              1.185000       2.215218
                          6       1    1dxy              1.185000       3.836871
                          6       1    1dxz              1.185000       3.836871
                          6       1    1dy2              1.185000       2.215218
                          6       1    1dyz              1.185000       3.836871
                          6       1    1dz2              1.185000       2.215218

     AE Potential information for                                            ALL

       Description:                                       All-electron potential
                                          Krack, Parrinello, PCCP 2, 2105 (2000)

       Gaussian exponent of the core charge distribution:               8.154466
       Electronic configuration (s p d ...):                           4   4   0


 MOLECULE KIND INFORMATION


 All atoms are their own molecule, skipping detailed information


 TOTAL NUMBERS AND MAXIMUM NUMBERS

  Total number of            - Atomic kinds:                                   2
                             - Atoms:                                          2
                             - Shell sets:                                    12
                             - Shells:                                        20
                             - Primitive Cartesian functions:                 41
                             - Cartesian basis functions:                     54
                             - Spherical basis functions:                     50

  Maximum angular momentum of the orbital basis functions:                     2


 MODULE QUICKSTEP: ATOMIC COORDINATES IN ANGSTROM

   Atom Kind Element         X             Y             Z       Z(eff)     Mass
      1    1 S    16     15.743107     15.000000     15.000000  16.0000  32.0650
      2    2 O     8     14.256893     15.000000     15.000000   8.0000  15.9994



 SCF PARAMETERS         Density guess:                                    ATOMIC
                        --------------------------------------------------------
                        max_scf:                                             500
                        max_scf_history:                                       0
                        max_diis:                                              4
                        --------------------------------------------------------
                        eps_scf:                                        1.00E-06
                        eps_scf_history:                                0.00E+00
                        eps_diis:                                       1.00E-01
                        eps_eigval:                                     1.00E-05
                        --------------------------------------------------------
                        level_shift [a.u.]:                             0.000000
                        added MOs                                        38    0
                        --------------------------------------------------------
                        Mixing method:                            BROYDEN_MIXING
                                                charge density mixing in g-space
                        --------------------------------------------------------
                        No outer SCF

 PW_GRID| Information for grid number                                          1
 PW_GRID| Grid distributed over                                    48 processors
 PW_GRID| Real space group dimensions                                    48    1
 PW_GRID| the grid is blocked:                                                NO
 PW_GRID| Cutoff [a.u.]                                                    250.0
 PW_GRID| spherical cutoff:                                                   NO
 PW_GRID|   Bounds   1           -202     202                Points:         405
 PW_GRID|   Bounds   2           -202     202                Points:         405
 PW_GRID|   Bounds   3           -202     202                Points:         405
 PW_GRID| Volume element (a.u.^3)  0.2743E-02     Volume (a.u.^3)    182205.0337
 PW_GRID| Grid span                                                    FULLSPACE
 PW_GRID|   Distribution                         Average         Max         Min
 PW_GRID|   G-Vectors                          1383960.9     1384290     1383885
 PW_GRID|   G-Rays                                3417.2        3418        3417
 PW_GRID|   Real Space Points                  1383960.9     1476225     1312200

 PW_GRID| Information for grid number                                          2
 PW_GRID| Number of the reference grid                                         1
 PW_GRID| Grid distributed over                                    48 processors
 PW_GRID| Real space group dimensions                                    48    1
 PW_GRID| the grid is blocked:                                                NO
 PW_GRID| Cutoff [a.u.]                                                     83.3
 PW_GRID| spherical cutoff:                                                   NO
 PW_GRID|   Bounds   1           -120     119                Points:         240
 PW_GRID|   Bounds   2           -120     119                Points:         240
 PW_GRID|   Bounds   3           -120     119                Points:         240
 PW_GRID| Volume element (a.u.^3)  0.1318E-01     Volume (a.u.^3)    182205.0337
 PW_GRID| Grid span                                                    FULLSPACE
 PW_GRID|   Distribution                         Average         Max         Min
 PW_GRID|   G-Vectors                           288000.0      288720      287520
 PW_GRID|   G-Rays                                1200.0        1203        1198
 PW_GRID|   Real Space Points                   288000.0      288000      288000

 PW_GRID| Information for grid number                                          3
 PW_GRID| Number of the reference grid                                         1
 PW_GRID| Grid distributed over                                    48 processors
 PW_GRID| Real space group dimensions                                    48    1
 PW_GRID| the grid is blocked:                                                NO
 PW_GRID| Cutoff [a.u.]                                                     27.8
 PW_GRID| spherical cutoff:                                                   NO
 PW_GRID|   Bounds   1            -67      67                Points:         135
 PW_GRID|   Bounds   2            -67      67                Points:         135
 PW_GRID|   Bounds   3            -67      67                Points:         135
 PW_GRID| Volume element (a.u.^3)  0.7406E-01     Volume (a.u.^3)    182205.0337
 PW_GRID| Grid span                                                    FULLSPACE
 PW_GRID|   Distribution                         Average         Max         Min
 PW_GRID|   G-Vectors                            51257.8       51570       51030
 PW_GRID|   G-Rays                                 379.7         382         378
 PW_GRID|   Real Space Points                    51257.8       54675       36450

 PW_GRID| Information for grid number                                          4
 PW_GRID| Number of the reference grid                                         1
 PW_GRID| Grid distributed over                                    48 processors
 PW_GRID| Real space group dimensions                                    48    1
 PW_GRID| the grid is blocked:                                                NO
 PW_GRID| Cutoff [a.u.]                                                      9.3
 PW_GRID| spherical cutoff:                                                   NO
 PW_GRID|   Bounds   1            -40      39                Points:          80
 PW_GRID|   Bounds   2            -40      39                Points:          80
 PW_GRID|   Bounds   3            -40      39                Points:          80
 PW_GRID| Volume element (a.u.^3)  0.3559         Volume (a.u.^3)    182205.0337
 PW_GRID| Grid span                                                    FULLSPACE
 PW_GRID|   Distribution                         Average         Max         Min
 PW_GRID|   G-Vectors                            10666.7       10800       10560
 PW_GRID|   G-Rays                                 133.3         135         132
 PW_GRID|   Real Space Points                    10666.7       12800        6400

 POISSON| Solver                                                         WAVELET
 POISSON| Wavelet| Scaling function                                           40
 POISSON| Periodicity                                                       NONE

 RS_GRID| Information for grid number                                          1
 RS_GRID|   Bounds   1           -202     202                Points:         405
 RS_GRID|   Bounds   2           -202     202                Points:         405
 RS_GRID|   Bounds   3           -202     202                Points:         405
 RS_GRID| Real space distribution over                                  3 groups
 RS_GRID| Real space distribution along direction                              1
 RS_GRID| Border size                                                         33
 RS_GRID| Real space distribution over                                  4 groups
 RS_GRID| Real space distribution along direction                              2
 RS_GRID| Border size                                                         33
 RS_GRID| Real space distribution over                                  4 groups
 RS_GRID| Real space distribution along direction                              3
 RS_GRID| Border size                                                         33
 RS_GRID|   Distribution                         Average         Max         Min
 RS_GRID|   Planes                                 201.0         201         201
 RS_GRID|   Distribution                         Average         Max         Min
 RS_GRID|   Planes                                 167.2         168         167
 RS_GRID|   Distribution                         Average         Max         Min
 RS_GRID|   Planes                                 167.2         168         167

 RS_GRID| Information for grid number                                          2
 RS_GRID|   Bounds   1           -120     119                Points:         240
 RS_GRID|   Bounds   2           -120     119                Points:         240
 RS_GRID|   Bounds   3           -120     119                Points:         240
 RS_GRID| Real space distribution over                                  3 groups
 RS_GRID| Real space distribution along direction                              1
 RS_GRID| Border size                                                         35
 RS_GRID| Real space distribution over                                  4 groups
 RS_GRID| Real space distribution along direction                              2
 RS_GRID| Border size                                                         35
 RS_GRID| Real space distribution over                                  4 groups
 RS_GRID| Real space distribution along direction                              3
 RS_GRID| Border size                                                         35
 RS_GRID|   Distribution                         Average         Max         Min
 RS_GRID|   Planes                                 150.0         150         150
 RS_GRID|   Distribution                         Average         Max         Min
 RS_GRID|   Planes                                 130.0         130         130
 RS_GRID|   Distribution                         Average         Max         Min
 RS_GRID|   Planes                                 130.0         130         130

 RS_GRID| Information for grid number                                          3
 RS_GRID|   Bounds   1            -67      67                Points:         135
 RS_GRID|   Bounds   2            -67      67                Points:         135
 RS_GRID|   Bounds   3            -67      67                Points:         135
 RS_GRID| Real space fully replicated
 RS_GRID| Group size                                                           1

 RS_GRID| Information for grid number                                          4
 RS_GRID|   Bounds   1            -40      39                Points:          80
 RS_GRID|   Bounds   2            -40      39                Points:          80
 RS_GRID|   Bounds   3            -40      39                Points:          80
 RS_GRID| Real space fully replicated
 RS_GRID| Group size                                                           1

  HFX_INFO| Replica ID:                                                        1
  HFX_INFO| FRACTION:                                               0.2500000000
  HFX_INFO| Interaction Potential:                                       COULOMB
  HFX_INFO| EPS_SCHWARZ:                                                 1.0E-10
  HFX_INFO| EPS_SCHWARZ_FORCES                                           1.0E-08
  HFX_INFO| EPS_STORAGE_SCALING:                                         1.0E+00
  HFX_INFO| NBINS:                                                            64
  HFX_INFO| BLOCK_SIZE:                                                        1
  HFX_INFO| Number of periodic shells considered:                           NONE
  HFX_INFO| Number of periodic cells considered:                            NONE

 
 RI-RPA| using GPW style
 

 OVERLAP MATRIX CONDITION NUMBER
 1-Norm Condition Number (Estimate)
   CN : |A|*|A^-1|:  6.726E+000 *  6.214E+002   = 4.179E+003  Log(1-CN):  3.6211
 1-Norm and 2-Norm Condition Numbers using Diagonalization
   CN : |A|*|A^-1|:  6.726E+000 *  6.214E+002   = 4.179E+003  Log(1-CN):  3.6211
   CN : max/min ev:  4.735E+000 /  2.788E-003   = 1.698E+003  Log(2-CN):  3.2300

 Number of electrons:                                                         24
 Number of occupied orbitals:                                                 12
 Number of molecular orbitals:                                                50

 Number of orbital functions:                                                 50
 Number of independent orbital functions:                                     50

 Extrapolation method: initial_guess

 Atomic guess: The first density matrix is obtained in terms of atomic orbitals
               and electronic configurations assigned to each atomic kind

 Guess for atomic kind: S

 Electronic structure
    Total number of core electrons                                          0.00
    Total number of valence electrons                                      16.00
    Total number of electrons                                              16.00
    Multiplicity                                                   not specified
    S      2.00  2.00  2.00
    P      6.00  4.00


 *******************************************************************************
                  Iteration          Convergence                     Energy [au]
 *******************************************************************************
                          1        0.485566                    -396.673393724675
                          2        0.108202                    -396.681976815860
                          3        0.403843E-01                -396.685576111539
                          4        0.119123E-03                -396.686301271291
                          5        0.125434E-04                -396.686301280876
                          6        0.118834E-06                -396.686301280932

 Energy components [Hartree]           Total Energy ::         -396.686301280932
                                        Band Energy ::         -227.829953570252
                                     Kinetic Energy ::          396.875254684209
                                   Potential Energy ::         -793.561555965141
                                      Virial (-V/T) ::            1.999523897242
                                        Core Energy ::         -549.156716585522
                                          XC Energy ::          -24.158017588827
                                     Coulomb Energy ::          176.628432893416

 Orbital energies  State     L     Occupation   Energy[a.u.]          Energy[eV]

                       1     0          2.000     -87.786447        -2388.790700
                       2     0          2.000      -7.703212         -209.615066
                       3     0          2.000      -0.632062          -17.199276

                       1     1          6.000      -5.756732         -156.648644
                       2     1          4.000      -0.261530           -7.116593


 Total Electron Density at R=0:                                      2595.780368

 Guess for atomic kind: O

 Electronic structure
    Total number of core electrons                                          0.00
    Total number of valence electrons                                       8.00
    Total number of electrons                                               8.00
    Multiplicity                                                   not specified
    S      2.00  2.00
    P      4.00


 *******************************************************************************
                  Iteration          Convergence                     Energy [au]
 *******************************************************************************
                          1        0.684364                     -74.339089617110
                          2        0.725475                     -74.331768383214
                          3        0.164048E-01                 -74.445010329461
                          4        0.133197E-02                 -74.445102079973
                          5        0.433662E-04                 -74.445102400705
                          6        0.870320E-06                 -74.445102401090

 Energy components [Hartree]           Total Energy ::          -74.445102401090
                                        Band Energy ::          -40.633506884525
                                     Kinetic Energy ::           74.418788801225
                                   Potential Energy ::         -148.863891202315
                                      Virial (-V/T) ::            2.000353588123
                                        Core Energy ::         -102.956409295290
                                          XC Energy ::           -7.773368920479
                                     Coulomb Energy ::           36.284675814680

 Orbital energies  State     L     Occupation   Energy[a.u.]          Energy[eV]

                       1     0          2.000     -18.768159         -510.707575
                       2     0          2.000      -0.873851          -23.778707

                       1     1          4.000      -0.337372           -9.180347


 Total Electron Density at R=0:                                       298.043610
 Re-scaling the density matrix to get the right number of electrons
                  # Electrons              Trace(P)               Scaling factor
                           24                24.000                        1.000


 SCF WAVEFUNCTION OPTIMIZATION

  Step     Update method      Time    Convergence         Total energy    Change
  ------------------------------------------------------------------------------

  HFX_MEM_INFO| Est. max. program size before HFX [MiB]:                    1302
  HFX_MEM_INFO| Number of cart. primitive ERI's calculated:             22383084
  HFX_MEM_INFO| Number of sph. ERI's calculated:                         2363782
  HFX_MEM_INFO| Number of sph. ERI's stored in-core:                     2363782
  HFX_MEM_INFO| Number of sph. ERI's stored on disk:                           0
  HFX_MEM_INFO| Number of sph. ERI's calculated on the fly:                    0
  HFX_MEM_INFO| Total memory consumption ERI's RAM [MiB]:                     10
  HFX_MEM_INFO| Whereof max-vals [MiB]:                                        2
  HFX_MEM_INFO| Total compression factor ERI's RAM:                         1.92
[...]
 *    |             please set the keyword IGNORE_CONVERGENCE_FAILURE.         *
 *  O/|                                                                        *
 * /| |                                                                        *
 * / \                                                            qs_scf.F:611 *
 *******************************************************************************


 ===== Routine Calling Stack ===== 

            3 scf_env_do_scf
            2 qs_energies
            1 CP2K

 *******************************************************************************
 *   ___                                                                       *
 *  /   \                                                                      *
 * [ABORT]                                                                     *
 *  \___/     SCF run NOT converged. To continue the calculation regardless,   *
 *    |             please set the keyword IGNORE_CONVERGENCE_FAILURE.         *
 *  O/|                                                                        *
 * /| |                                                                        *
 * / \                                                            qs_scf.F:611 *
 *******************************************************************************


 ===== Routine Calling Stack ===== 

            3 scf_env_do_scf
            2 qs_energies
            1 CP2K

 *******************************************************************************
 *   ___                                                                       *
 *  /   \                                                                      *
 * [ABORT]                                                                     *
 *  \___/     SCF run NOT converged. To continue the calculation regardless,   *
 *    |             please set the keyword IGNORE_CONVERGENCE_FAILURE.         *
 *  O/|                                                                        *
 * /| |                                                                        *
 * / \                                                            qs_scf.F:611 *
 *******************************************************************************


 ===== Routine Calling Stack ===== 

            3 scf_env_do_scf
            2 qs_energies
            1 CP2K

 *******************************************************************************
 *   ___                                                                       *
 *  /   \                                                                      *
 * [ABORT]                                                                     *
 *  \___/     SCF run NOT converged. To continue the calculation regardless,   *
 *    |             please set the keyword IGNORE_CONVERGENCE_FAILURE.         *
 *  O/|                                                                        *
 * /| |                                                                        *
 * / \                                                            qs_scf.F:611 *
 *******************************************************************************


 ===== Routine Calling Stack ===== 

            3 scf_env_do_scf
            2 qs_energies
            1 CP2K

 *******************************************************************************
 *   ___                                                                       *
 *  /   \                                                                      *
 * [ABORT]                                                                     *
 *  \___/     SCF run NOT converged. To continue the calculation regardless,   *
 *    |             please set the keyword IGNORE_CONVERGENCE_FAILURE.         *
 *  O/|                                                                        *
 * /| |                                                                        *
 * / \                                                            qs_scf.F:611 *
 *******************************************************************************


 ===== Routine Calling Stack ===== 

            3 scf_env_do_scf
            2 qs_energies
            1 CP2K

 *******************************************************************************
 *   ___                                                                       *
 *  /   \                                                                      *
 * [ABORT]                                                                     *
 *  \___/     SCF run NOT converged. To continue the calculation regardless,   *
 *    |             please set the keyword IGNORE_CONVERGENCE_FAILURE.         *
 *  O/|                                                                        *
 * /| |                                                                        *
 * / \                                                            qs_scf.F:611 *
 *******************************************************************************


 ===== Routine Calling Stack ===== 

            3 scf_env_do_scf
            2 qs_energies
            1 CP2K

 *******************************************************************************
 *   ___                                                                       *
 *  /   \                                                                      *
 * [ABORT]                                                                     *
 *  \___/     SCF run NOT converged. To continue the calculation regardless,   *
 *    |             please set the keyword IGNORE_CONVERGENCE_FAILURE.         *
 *  O/|                                                                        *
 * /| |                                                                        *
 * / \                                                            qs_scf.F:611 *
 *******************************************************************************


 ===== Routine Calling Stack ===== 

            3 scf_env_do_scf
            2 qs_energies
            1 CP2K

 *******************************************************************************
 *   ___                                                                       *
 *  /   \                                                                      *
 * [ABORT]                                                                     *
 *  \___/     SCF run NOT converged. To continue the calculation regardless,   *
 *    |             please set the keyword IGNORE_CONVERGENCE_FAILURE.         *
 *  O/|                                                                        *
 * /| |                                                                        *
 * / \                                                            qs_scf.F:611 *
 *******************************************************************************


 ===== Routine Calling Stack ===== 

            3 scf_env_do_scf
            2 qs_energies
            1 CP2K

 *******************************************************************************
 *   ___                                                                       *
 *  /   \                                                                      *
 * [ABORT]                                                                     *
 *  \___/     SCF run NOT converged. To continue the calculation regardless,   *
 *    |             please set the keyword IGNORE_CONVERGENCE_FAILURE.         *
 *  O/|                                                                        *
 * /| |                                                                        *
 * / \                                                            qs_scf.F:611 *
 *******************************************************************************


 ===== Routine Calling Stack ===== 

            3 scf_env_do_scf
            2 qs_energies
            1 CP2K

 *******************************************************************************
 *   ___                                                                       *
 *  /   \                                                                      *
 * [ABORT]                                                                     *
 *  \___/     SCF run NOT converged. To continue the calculation regardless,   *
 *    |             please set the keyword IGNORE_CONVERGENCE_FAILURE.         *
 *  O/|                                                                        *
 * /| |                                                                        *
 * / \                                                            qs_scf.F:611 *
 *******************************************************************************


 ===== Routine Calling Stack ===== 

            3 scf_env_do_scf
            2 qs_energies
            1 CP2K

 *******************************************************************************
 *   ___                                                                       *
 *  /   \                                                                      *
 * [ABORT]                                                                     *
 *  \___/     SCF run NOT converged. To continue the calculation regardless,   *
 *    |             please set the keyword IGNORE_CONVERGENCE_FAILURE.         *
 *  O/|                                                                        *
 * /| |                                                                        *
 * / \                                                            qs_scf.F:611 *
 *******************************************************************************


 ===== Routine Calling Stack ===== 

            3 scf_env_do_scf
            2 qs_energies
            1 CP2K

 *******************************************************************************
 *   ___                                                                       *
 *  /   \                                                                      *
 * [ABORT]                                                                     *
 *  \___/     SCF run NOT converged. To continue the calculation regardless,   *
 *    |             please set the keyword IGNORE_CONVERGENCE_FAILURE.         *
 *  O/|                                                                        *
 * /| |                                                                        *
 * / \                                                            qs_scf.F:611 *
 *******************************************************************************


 ===== Routine Calling Stack ===== 

            3 scf_env_do_scf
            2 qs_energies
            1 CP2K

 *******************************************************************************
 *   ___                                                                       *
 *  /   \                                                                      *
 * [ABORT]                                                                     *
 *  \___/     SCF run NOT converged. To continue the calculation regardless,   *
 *    |             please set the keyword IGNORE_CONVERGENCE_FAILURE.         *
 *  O/|                                                                        *
 * /| |                                                                        *
 * / \                                                            qs_scf.F:611 *
 *******************************************************************************


 ===== Routine Calling Stack ===== 

            3 scf_env_do_scf
            2 qs_energies
            1 CP2K

 *******************************************************************************
 *   ___                                                                       *
 *  /   \                                                                      *
 * [ABORT]                                                                     *
 *  \___/     SCF run NOT converged. To continue the calculation regardless,   *
 *    |             please set the keyword IGNORE_CONVERGENCE_FAILURE.         *
 *  O/|                                                                        *
 * /| |                                                                        *
 * / \                                                            qs_scf.F:611 *
 *******************************************************************************


 ===== Routine Calling Stack ===== 

            3 scf_env_do_scf
            2 qs_energies
            1 CP2K

 *******************************************************************************
 *   ___                                                                       *
 *  /   \                                                                      *
 * [ABORT]                                                                     *
 *  \___/     SCF run NOT converged. To continue the calculation regardless,   *
 *    |             please set the keyword IGNORE_CONVERGENCE_FAILURE.         *
 *  O/|                                                                        *
 * /| |                                                                        *
 * / \                                                            qs_scf.F:611 *
 *******************************************************************************


 ===== Routine Calling Stack ===== 

            3 scf_env_do_scf
            2 qs_energies
            1 CP2K

 *******************************************************************************
 *   ___                                                                       *
 *  /   \                                                                      *
 * [ABORT]                                                                     *
 *  \___/     SCF run NOT converged. To continue the calculation regardless,   *
 *    |             please set the keyword IGNORE_CONVERGENCE_FAILURE.         *
 *  O/|                                                                        *
 * /| |                                                                        *
 * / \                                                            qs_scf.F:611 *
 *******************************************************************************


 ===== Routine Calling Stack ===== 

            3 scf_env_do_scf
            2 qs_energies
            1 CP2K

 *******************************************************************************
 *   ___                                                                       *
 *  /   \                                                                      *
 * [ABORT]                                                                     *
 *  \___/     SCF run NOT converged. To continue the calculation regardless,   *
 *    |             please set the keyword IGNORE_CONVERGENCE_FAILURE.         *
 *  O/|                                                                        *
 * /| |                                                                        *
 * / \                                                            qs_scf.F:611 *
 *******************************************************************************


 ===== Routine Calling Stack ===== 

            3 scf_env_do_scf
            2 qs_energies
            1 CP2K

 *******************************************************************************
 *   ___                                                                       *
 *  /   \                                                                      *
 * [ABORT]                                                                     *
 *  \___/     SCF run NOT converged. To continue the calculation regardless,   *
 *    |             please set the keyword IGNORE_CONVERGENCE_FAILURE.         *
 *  O/|                                                                        *
 * /| |                                                                        *
 * / \                                                            qs_scf.F:611 *
 *******************************************************************************


 ===== Routine Calling Stack ===== 

            3 scf_env_do_scf
            2 qs_energies
            1 CP2K

 *******************************************************************************
 *   ___                                                                       *
 *  /   \                                                                      *
 * [ABORT]                                                                     *
 *  \___/     SCF run NOT converged. To continue the calculation regardless,   *
 *    |             please set the keyword IGNORE_CONVERGENCE_FAILURE.         *
 *  O/|                                                                        *
 * /| |                                                                        *
 * / \                                                            qs_scf.F:611 *
 *******************************************************************************


 ===== Routine Calling Stack ===== 

            3 scf_env_do_scf
            2 qs_energies
            1 CP2K

 *******************************************************************************
 *   ___                                                                       *
 *  /   \                                                                      *
 * [ABORT]                                                                     *
 *  \___/     SCF run NOT converged. To continue the calculation regardless,   *
 *    |             please set the keyword IGNORE_CONVERGENCE_FAILURE.         *
 *  O/|                                                                        *
 * /| |                                                                        *
 * / \                                                            qs_scf.F:611 *
 *******************************************************************************


 ===== Routine Calling Stack ===== 

            3 scf_env_do_scf
            2 qs_energies
            1 CP2K

 *******************************************************************************
 *   ___                                                                       *
 *  /   \                                                                      *
 * [ABORT]                                                                     *
 *  \___/     SCF run NOT converged. To continue the calculation regardless,   *
 *    |             please set the keyword IGNORE_CONVERGENCE_FAILURE.         *
 *  O/|                                                                        *
 * /| |                                                                        *
 * / \                                                            qs_scf.F:611 *
 *******************************************************************************


 ===== Routine Calling Stack ===== 

            3 scf_env_do_scf
            2 qs_energies
            1 CP2K

 *******************************************************************************
 *   ___                                                                       *
 *  /   \                                                                      *
 * [ABORT]                                                                     *
 *  \___/     SCF run NOT converged. To continue the calculation regardless,   *
 *    |             please set the keyword IGNORE_CONVERGENCE_FAILURE.         *
 *  O/|                                                                        *
 * /| |                                                                        *
 * / \                                                            qs_scf.F:611 *
 *******************************************************************************


 ===== Routine Calling Stack ===== 

            3 scf_env_do_scf
            2 qs_energies
            1 CP2K
