 DBCSR| CPU Multiplication driver                                           BLAS (U)
 DBCSR| Multrec recursion limit                                              512 (U)
 DBCSR| Multiplication stack size                                           1000 (D)
 DBCSR| Maximum elements for images                                    UNLIMITED (U)
 DBCSR| Multiplicative factor virtual images                                   1 (U)
 DBCSR| Use multiplication densification                                       T (D)
 DBCSR| Multiplication size stacks                                             3 (U)
 DBCSR| Use memory pool for CPU allocation                                     F (U)
 DBCSR| Number of 3D layers                                               SINGLE (U)
 DBCSR| Use MPI memory allocation                                              F (U)
 DBCSR| Use RMA algorithm                                                      F (U)
 DBCSR| Use Communication thread                                               T (U)
 DBCSR| Communication thread load                                             75 (D)
 DBCSR| MPI: My process id                                                     0
 DBCSR| MPI: Number of processes                                              24
 DBCSR| OMP: Current number of threads                                         4
 DBCSR| OMP: Max number of threads                                             4
 DBCSR| Split modifier for TAS multiplication algorithm                  1.0E+00 (U)


  **** **** ******  **  PROGRAM STARTED AT               2025-03-03 01:26:27.886
 ***** ** ***  *** **   PROGRAM STARTED ON                          i01r05c05s11
 **    ****   ******    PROGRAM STARTED BY                               di38fab
 ***** **    ** ** **   PROGRAM PROCESS ID                                600501
  **** **  *******  **  PROGRAM STARTED IN /hppfs/scratch/04/di38fab/05_MOL/W4-1
                                           1+ALK/b2/SZV

 CP2K| version string:                 CP2K version 2025.1 (Development Version)
 CP2K| source code revision number:                                  git:47877ba
 CP2K| cp2kflags: omp libint fftw3 libxc parallel scalapack max_contr=4         
 CP2K| is freely available from                            https://www.cp2k.org/
 CP2K| Program compiled at                          Thu Feb 20 16:00:34 CET 2025
 CP2K| Program compiled on                                               login04
 CP2K| Program compiled for                                        Supermuc-foss
 CP2K| Data directory path          /hppfs/work/pn36zo/di38fab/newcp2k/cp2k/data
 CP2K| Input file name                                                    GW.inp

 GLOBAL| Force Environment number                                              1
 GLOBAL| Basis set file name            /hppfs/scratch/04/di38fab/04_TMD/BASIS_A
 GLOBAL| Potential file name            /hppfs/work/pn36zo/di38fab/cp2k/data/ALL
 GLOBAL| MM Potential file name                                     MM_POTENTIAL
 GLOBAL| Coordinate file name                                      __STD_INPUT__
 GLOBAL| Method name                                                        CP2K
 GLOBAL| Project name                                                       MoS2
 GLOBAL| Run type                                                         ENERGY
 GLOBAL| FFT library                                                       FFTW3
 GLOBAL| Diagonalization library                                       ScaLAPACK
 GLOBAL| DGEMM library                                                      BLAS
 GLOBAL| Orthonormality check for eigenvectors                          DISABLED
 GLOBAL| Matrix multiplication library                                 ScaLAPACK
 GLOBAL| All-to-all communication in single precision                          F
 GLOBAL| FFTs using library dependent lengths                                  F
 GLOBAL| Grid backend                                                       AUTO
 GLOBAL| Global print level                                               MEDIUM
 GLOBAL| MPI I/O enabled                                                       T
 GLOBAL| Total number of message passing processes                            24
 GLOBAL| Number of threads for this process                                    4
 GLOBAL| This output is from process                                           0
 GLOBAL| OpenMP stack size per thread (OMP_STACKSIZE)                    default
 GLOBAL| CPU model name             Intel(R) Xeon(R) Platinum 8174 CPU @ 3.10GHz

 MEMORY| system memory details [Kb]
 MEMORY|                        rank 0           min           max       average
 MEMORY| MemTotal             98436664      98436660      98436664      98436662
 MEMORY| MemFree              83926200      83926200      83985548      83955874
 MEMORY| Buffers                     0             0             0             0
 MEMORY| Cached                2418376       2396632       2418376       2407504
 MEMORY| Slab                  1240856       1203224       1240856       1222040
 MEMORY| SReclaimable           283488        264764        283488        274126
 MEMORY| MemLikelyFree        86628064      86628064      86646944      86637504


 *** Fundamental physical constants (SI units) ***

 *** Literature: B. J. Mohr and B. N. Taylor,
 ***             CODATA recommended values of the fundamental physical
 ***             constants: 2006, Web Version 5.1
 ***             http://physics.nist.gov/constants

 Speed of light in vacuum [m/s]                             2.99792458000000E+08
 Magnetic constant or permeability of vacuum [N/A**2]       1.25663706143592E-06
 Electric constant or permittivity of vacuum [F/m]          8.85418781762039E-12
 Planck constant (h) [J*s]                                  6.62606896000000E-34
 Planck constant (h-bar) [J*s]                              1.05457162825177E-34
 Elementary charge [C]                                      1.60217648700000E-19
 Electron mass [kg]                                         9.10938215000000E-31
 Electron g factor [ ]                                     -2.00231930436220E+00
 Proton mass [kg]                                           1.67262163700000E-27
 Fine-structure constant                                    7.29735253760000E-03
 Rydberg constant [1/m]                                     1.09737315685270E+07
 Avogadro constant [1/mol]                                  6.02214179000000E+23
 Boltzmann constant [J/K]                                   1.38065040000000E-23
 Atomic mass unit [kg]                                      1.66053878200000E-27
 Bohr radius [m]                                            5.29177208590000E-11

 *** Conversion factors ***

 [u] -> [a.u.]                                              1.82288848426455E+03
 [Angstrom] -> [Bohr] = [a.u.]                              1.88972613288564E+00
 [a.u.] = [Bohr] -> [Angstrom]                              5.29177208590000E-01
 [a.u.] -> [s]                                              2.41888432650478E-17
 [a.u.] -> [fs]                                             2.41888432650478E-02
 [a.u.] -> [J]                                              4.35974393937059E-18
 [a.u.] -> [N]                                              8.23872205491840E-08
 [a.u.] -> [K]                                              3.15774647902944E+05
 [a.u.] -> [kJ/mol]                                         2.62549961709828E+03
 [a.u.] -> [kcal/mol]                                       6.27509468713739E+02
 [a.u.] -> [Pa]                                             2.94210107994716E+13
 [a.u.] -> [bar]                                            2.94210107994716E+08
 [a.u.] -> [atm]                                            2.90362800883016E+08
 [a.u.] -> [eV]                                             2.72113838565563E+01
 [a.u.] -> [Hz]                                             6.57968392072181E+15
 [a.u.] -> [1/cm] (wave numbers)                            2.19474631370540E+05
 [a.u./Bohr**2] -> [1/cm]                                   5.14048714338585E+03
 

 CELL_TOP| Volume [angstrom^3]:                                     27000.000000
 CELL_TOP| Vector a [angstrom    30.000     0.000     0.000   |a| =    30.000000
 CELL_TOP| Vector b [angstrom     0.000    30.000     0.000   |b| =    30.000000
 CELL_TOP| Vector c [angstrom     0.000     0.000    30.000   |c| =    30.000000
 CELL_TOP| Angle (b,c), alpha [degree]:                                90.000000
 CELL_TOP| Angle (a,c), beta  [degree]:                                90.000000
 CELL_TOP| Angle (a,b), gamma [degree]:                                90.000000
 CELL_TOP| Numerically orthorhombic:                                         YES
 CELL_TOP| Periodicity                                                      NONE

 GENERATE|  Preliminary Number of Bonds generated:                             0
 GENERATE|  Achieved consistency in connectivity generation.

 CELL| Volume [angstrom^3]:                                         27000.000000
 CELL| Vector a [angstrom]:      30.000     0.000     0.000   |a| =    30.000000
 CELL| Vector b [angstrom]:       0.000    30.000     0.000   |b| =    30.000000
 CELL| Vector c [angstrom]:       0.000     0.000    30.000   |c| =    30.000000
 CELL| Angle (b,c), alpha [degree]:                                    90.000000
 CELL| Angle (a,c), beta  [degree]:                                    90.000000
 CELL| Angle (a,b), gamma [degree]:                                    90.000000
 CELL| Numerically orthorhombic:                                             YES
 CELL| Periodicity                                                          NONE

 CELL_REF| Volume [angstrom^3]:                                     27000.000000
 CELL_REF| Vector a [angstrom    30.000     0.000     0.000   |a| =    30.000000
 CELL_REF| Vector b [angstrom     0.000    30.000     0.000   |b| =    30.000000
 CELL_REF| Vector c [angstrom     0.000     0.000    30.000   |c| =    30.000000
 CELL_REF| Angle (b,c), alpha [degree]:                                90.000000
 CELL_REF| Angle (a,c), beta  [degree]:                                90.000000
 CELL_REF| Angle (a,b), gamma [degree]:                                90.000000
 CELL_REF| Numerically orthorhombic:                                         YES
 CELL_REF| Periodicity                                                      NONE

 *******************************************************************************
 *******************************************************************************
 **                                                                           **
 **     #####                         ##              ##                      **
 **    ##   ##            ##          ##              ##                      **
 **   ##     ##                       ##            ######                    **
 **   ##     ##  ##   ##  ##   #####  ##  ##   ####   ##    #####    #####    **
 **   ##     ##  ##   ##  ##  ##      ## ##   ##      ##   ##   ##  ##   ##   **
 **   ##  ## ##  ##   ##  ##  ##      ####     ###    ##   ######   ######    **
 **    ##  ###   ##   ##  ##  ##      ## ##      ##   ##   ##       ##        **
 **     #######   #####   ##   #####  ##  ##  ####    ##    #####   ##        **
 **           ##                                                    ##        **
 **                                                                           **
 **                                                ... make the atoms dance   **
 **                                                                           **
 **            Copyright (C) by CP2K developers group (2000-2025)             **
 **                      J. Chem. Phys. 152, 194103 (2020)                    **
 **                                                                           **
 *******************************************************************************

 DFT| Spin restricted Kohn-Sham (RKS) calculation                            RKS
 DFT| Multiplicity                                                             1
 DFT| Number of spin states                                                    1
 DFT| Charge                                                                   0
 DFT| Self-interaction correction (SIC)                                       NO
 DFT| Cutoffs: density                                              1.000000E-10
 DFT|          gradient                                             1.000000E-10
 DFT|          tau                                                  1.000000E-10
 DFT|          cutoff_smoothing_range                               0.000000E+00
 DFT| XC density smoothing                                                  NONE
 DFT| XC derivatives                                                          PW

 FUNCTIONAL| PBE:
 FUNCTIONAL| J.P.Perdew, K.Burke, M.Ernzerhof, Phys. Rev. Letter, vol. 77, n 18,
 FUNCTIONAL|  pp. 3865-3868, (1996)sx=0.750sc=1.000{spin unpolarized}           


 QS| Method:                                                                GAPW
 QS| Density plane wave grid type                        NON-SPHERICAL FULLSPACE
 QS| Number of grid levels:                                                    4
 QS| Density cutoff [a.u.]:                                                250.0
 QS| Multi grid cutoff [a.u.]: 1) grid level                               250.0
 QS|                           2) grid level                                83.3
 QS|                           3) grid level                                27.8
 QS|                           4) grid level                                 9.3
 QS| Grid level progression factor:                                          3.0
 QS| Relative density cutoff [a.u.]:                                        50.0
 QS| Interaction thresholds: eps_pgf_orb:                                1.0E-12
 QS|                         eps_filter_matrix:                          0.0E+00
 QS|                         eps_core_charge:                            1.0E-14
 QS|                         eps_rho_gspace:                             1.0E-12
 QS|                         eps_rho_rspace:                             1.0E-12
 QS|                         eps_gvg_rspace:                             1.0E-06
 QS|                         eps_ppl:                                    1.0E-02
 QS|                         eps_ppnl:                                   1.0E-08
 QS| GAPW|      One center basis from orbital basis primitives
 QS| GAPW|                   eps_fit:                                    1.0E-04
 QS| GAPW|                   eps_iso:                                    1.0E-12
 QS| GAPW|                   eps_svd:                                    1.0E-08
 QS| GAPW|                   eps_cpc:                                    1.0E-12
 QS| GAPW|   atom-r-grid: quadrature:                                     GC_LOG
 QS| GAPW|      atom-s-grid:  max l :                                          4
 QS| GAPW|      max_l_rho0 :                                                   2


 ATOMIC KIND INFORMATION

  1. Atomic kind: B                                     Number of atoms:       2

     Orbital Basis Set                                         aug-SZV-MOLOPT-ae

       Number of orbital shell sets:                                           2
       Number of orbital shells:                                               6
       Number of primitive Cartesian functions:                               13
       Number of Cartesian basis functions:                                   15
       Number of spherical basis functions:                                   14
       Norm type:                                                              2

       Normalised Cartesian orbitals:

                        Set   Shell   Orbital            Exponent    Coefficient

                          1       1    1s                0.109280       0.032606
                                                         0.155613       0.000000
                                                         0.238409       0.144712
                                                         0.548949       0.113742
                                                         1.426820      -0.031435
                                                         4.590809      -0.105038
                                                        23.194561      -0.099829

                          1       2    2s                0.109280      -0.049098
                                                         0.155613      -0.119813
                                                         0.238409      -0.025283
                                                         0.548949       0.056653
                                                         1.426820       0.132404
                                                         4.590809       0.000000
                                                        23.194561       0.000000

                          1       3    2px               0.109280       0.009109
                                                         0.155613       0.000000
                                                         0.238409       0.101125
                                                         0.548949       0.281559
                                                         1.426820       0.386539
                                                         4.590809       0.360915
                                                        23.194561       0.272788
                          1       3    2py               0.109280       0.009109
                                                         0.155613       0.000000
                                                         0.238409       0.101125
                                                         0.548949       0.281559
                                                         1.426820       0.386539
                                                         4.590809       0.360915
                                                        23.194561       0.272788
                          1       3    2pz               0.109280       0.009109
                                                         0.155613       0.000000
                                                         0.238409       0.101125
                                                         0.548949       0.281559
                                                         1.426820       0.386539
                                                         4.590809       0.360915
                                                        23.194561       0.272788

                          1       4    3px               0.109280       0.062233
                                                         0.155613       0.035668
                                                         0.238409       0.015304
                                                         0.548949      -0.003054
                                                         1.426820       0.021875
                                                         4.590809       0.000000
                                                        23.194561       0.000000
                          1       4    3py               0.109280       0.062233
                                                         0.155613       0.035668
                                                         0.238409       0.015304
                                                         0.548949      -0.003054
                                                         1.426820       0.021875
                                                         4.590809       0.000000
                                                        23.194561       0.000000
                          1       4    3pz               0.109280       0.062233
                                                         0.155613       0.035668
                                                         0.238409       0.015304
                                                         0.548949      -0.003054
                                                         1.426820       0.021875
                                                         4.590809       0.000000
                                                        23.194561       0.000000

                          1       5    3dx2              0.109280       0.000986
                                                         0.155613       0.002022
                                                         0.238409       0.109458
                                                         0.548949       0.095099
                                                         1.426820       0.028232
                                                         4.590809       0.000000
                                                        23.194561       0.000000
                          1       5    3dxy              0.109280       0.001708
                                                         0.155613       0.003503
                                                         0.238409       0.189586
                                                         0.548949       0.164717
                                                         1.426820       0.048900
                                                         4.590809       0.000000
                                                        23.194561       0.000000
                          1       5    3dxz              0.109280       0.001708
                                                         0.155613       0.003503
                                                         0.238409       0.189586
                                                         0.548949       0.164717
                                                         1.426820       0.048900
                                                         4.590809       0.000000
                                                        23.194561       0.000000
                          1       5    3dy2              0.109280       0.000986
                                                         0.155613       0.002022
                                                         0.238409       0.109458
                                                         0.548949       0.095099
                                                         1.426820       0.028232
                                                         4.590809       0.000000
                                                        23.194561       0.000000
                          1       5    3dyz              0.109280       0.001708
                                                         0.155613       0.003503
                                                         0.238409       0.189586
                                                         0.548949       0.164717
                                                         1.426820       0.048900
                                                         4.590809       0.000000
                                                        23.194561       0.000000
                          1       5    3dz2              0.109280       0.000986
                                                         0.155613       0.002022
                                                         0.238409       0.109458
                                                         0.548949       0.095099
                                                         1.426820       0.028232
                                                         4.590809       0.000000
                                                        23.194561       0.000000

                          2       1    1s              506.011837       0.696781
                                                        92.776716       1.051665
                                                        25.955582       1.381280
                                                         8.916443       1.362748
                                                         3.462516       0.753460
                                                         1.426055       0.121219

     RI Auxiliary Basis Set             RI_aug-SZV-MOLOPT-ae_N_RI_025_s_p_d_f_g_

       Number of orbital shell sets:                                           9
       Number of orbital shells:                                               9
       Number of primitive Cartesian functions:                                9
       Number of Cartesian basis functions:                                   29
       Number of spherical basis functions:                                   25
       Norm type:                                                              2

       Normalised Cartesian orbitals:

                        Set   Shell   Orbital            Exponent    Coefficient

                          1       1    1s                0.250341       0.252237

                          2       1    5px               0.273284       0.281648
                          2       1    5py               0.273284       0.281648
                          2       1    5pz               0.273284       0.281648

                          3       1    8dx2              0.455299       0.415363
                          3       1    8dxy              0.455299       0.719430
                          3       1    8dxz              0.455299       0.719430
                          3       1    8dy2              0.455299       0.415363
                          3       1    8dyz              0.455299       0.719430
                          3       1    8dz2              0.455299       0.415363

                          4       1    9fx3              0.675974       0.609953
                          4       1    9fx2y             0.675974       1.363897
                          4       1    9fx2z             0.675974       1.363897
                          4       1    9fxy2             0.675974       1.363897
                          4       1    9fxyz             0.675974       2.362339
                          4       1    9fxz2             0.675974       1.363897
                          4       1    9fy3              0.675974       0.609953
                          4       1    9fy2z             0.675974       1.363897
                          4       1    9fyz2             0.675974       1.363897
                          4       1    9fz3              0.675974       0.609953

                          5       1    6px               0.737183       0.973664
                          5       1    6py               0.737183       0.973664
                          5       1    6pz               0.737183       0.973664

                          6       1    2s                0.787813       0.595974

                          7       1    3s                5.974522       2.723563

                          8       1    7px               7.247300      16.949636
                          8       1    7py               7.247300      16.949636
                          8       1    7pz               7.247300      16.949636

                          9       1    4s               47.432595      12.881539

       Atomic covalent radius [Angstrom]:                                  0.820

       Atomic van der Waals radius [Angstrom]:                             1.920

     The atoms of this atomic kind are PAW atoms (GAPW):
       Hard Gaussian function radius:                                      1.512
       Rho0 radius:                                                        1.512
       Maximum GTO radius used for PAW projector construction:            24.566

     GAPW Soft Basis Set                                  aug-SZV-MOLOPT-ae_soft

       Number of orbital shell sets:                                           2
       Number of orbital shells:                                               6
       Number of primitive Cartesian functions:                                7
       Number of Cartesian basis functions:                                   15
       Number of spherical basis functions:                                   14
       Norm type:                                                              2

       Normalised Cartesian orbitals:

                        Set   Shell   Orbital            Exponent    Coefficient

                          1       1    1s                0.109280       0.032606
                                                         0.155613       0.000000
                                                         0.238409       0.144712
                                                         0.548949       0.113742
                                                         1.426820      -0.031435

                          1       2    2s                0.109280      -0.049098
                                                         0.155613      -0.119813
                                                         0.238409      -0.025283
                                                         0.548949       0.056653
                                                         1.426820       0.132404

                          1       3    2px               0.109280       0.009109
                                                         0.155613       0.000000
                                                         0.238409       0.101125
                                                         0.548949       0.281559
                                                         1.426820       0.386539
                          1       3    2py               0.109280       0.009109
                                                         0.155613       0.000000
                                                         0.238409       0.101125
                                                         0.548949       0.281559
                                                         1.426820       0.386539
                          1       3    2pz               0.109280       0.009109
                                                         0.155613       0.000000
                                                         0.238409       0.101125
                                                         0.548949       0.281559
                                                         1.426820       0.386539

                          1       4    3px               0.109280       0.062233
                                                         0.155613       0.035668
                                                         0.238409       0.015304
                                                         0.548949      -0.003054
                                                         1.426820       0.021875
                          1       4    3py               0.109280       0.062233
                                                         0.155613       0.035668
                                                         0.238409       0.015304
                                                         0.548949      -0.003054
                                                         1.426820       0.021875
                          1       4    3pz               0.109280       0.062233
                                                         0.155613       0.035668
                                                         0.238409       0.015304
                                                         0.548949      -0.003054
                                                         1.426820       0.021875

                          1       5    3dx2              0.109280       0.000986
                                                         0.155613       0.002022
                                                         0.238409       0.109458
                                                         0.548949       0.095099
                                                         1.426820       0.028232
                          1       5    3dxy              0.109280       0.001708
                                                         0.155613       0.003503
                                                         0.238409       0.189586
                                                         0.548949       0.164717
                                                         1.426820       0.048900
                          1       5    3dxz              0.109280       0.001708
                                                         0.155613       0.003503
                                                         0.238409       0.189586
                                                         0.548949       0.164717
                                                         1.426820       0.048900
                          1       5    3dy2              0.109280       0.000986
                                                         0.155613       0.002022
                                                         0.238409       0.109458
                                                         0.548949       0.095099
                                                         1.426820       0.028232
                          1       5    3dyz              0.109280       0.001708
                                                         0.155613       0.003503
                                                         0.238409       0.189586
                                                         0.548949       0.164717
                                                         1.426820       0.048900
                          1       5    3dz2              0.109280       0.000986
                                                         0.155613       0.002022
                                                         0.238409       0.109458
                                                         0.548949       0.095099
                                                         1.426820       0.028232

                          2       1    1s                3.462516       0.753460
                                                         1.426055       0.121219

     AE Potential information for                                            ALL

       Description:                                       All-electron potential
                                          Krack, Parrinello, PCCP 2, 2105 (2000)

       Gaussian exponent of the core charge distribution:               2.655410
       Electronic configuration (s p d ...):                           4   1   0


 MOLECULE KIND INFORMATION


 All atoms are their own molecule, skipping detailed information


 TOTAL NUMBERS AND MAXIMUM NUMBERS

  Total number of            - Atomic kinds:                                   1
                             - Atoms:                                          2
                             - Shell sets:                                     4
                             - Shells:                                        12
                             - Primitive Cartesian functions:                 26
                             - Cartesian basis functions:                     30
                             - Spherical basis functions:                     28

  Maximum angular momentum of the orbital basis functions:                     2


 MODULE QUICKSTEP: ATOMIC COORDINATES IN ANGSTROM

   Atom Kind Element         X             Y             Z       Z(eff)     Mass
      1    1 B     5     15.793777     15.000000     15.000000   5.0000  10.8110
      2    1 B     5     14.206223     15.000000     15.000000   5.0000  10.8110



 SCF PARAMETERS         Density guess:                                    ATOMIC
                        --------------------------------------------------------
                        max_scf:                                             500
                        max_scf_history:                                       0
                        max_diis:                                              4
                        --------------------------------------------------------
                        eps_scf:                                        1.00E-06
                        eps_scf_history:                                0.00E+00
                        eps_diis:                                       1.00E-01
                        eps_eigval:                                     1.00E-05
                        --------------------------------------------------------
                        level_shift [a.u.]:                             0.000000
                        added MOs                                        23    0
                        --------------------------------------------------------
                        Mixing method:                            BROYDEN_MIXING
                                                charge density mixing in g-space
                        --------------------------------------------------------
                        No outer SCF

 PW_GRID| Information for grid number                                          1
 PW_GRID| Grid distributed over                                    24 processors
 PW_GRID| Real space group dimensions                                    24    1
 PW_GRID| the grid is blocked:                                                NO
 PW_GRID| Cutoff [a.u.]                                                    250.0
 PW_GRID| spherical cutoff:                                                   NO
 PW_GRID|   Bounds   1           -202     202                Points:         405
 PW_GRID|   Bounds   2           -202     202                Points:         405
 PW_GRID|   Bounds   3           -202     202                Points:         405
 PW_GRID| Volume element (a.u.^3)  0.2743E-02     Volume (a.u.^3)    182205.0337
 PW_GRID| Grid span                                                    FULLSPACE
 PW_GRID|   Distribution                         Average         Max         Min
 PW_GRID|   G-Vectors                          2767921.9     2768175     2767770
 PW_GRID|   G-Rays                                6834.4        6835        6834
 PW_GRID|   Real Space Points                  2767921.9     2788425     2624400

 PW_GRID| Information for grid number                                          2
 PW_GRID| Number of the reference grid                                         1
 PW_GRID| Grid distributed over                                    24 processors
 PW_GRID| Real space group dimensions                                    24    1
 PW_GRID| the grid is blocked:                                                NO
 PW_GRID| Cutoff [a.u.]                                                     83.3
 PW_GRID| spherical cutoff:                                                   NO
 PW_GRID|   Bounds   1           -120     119                Points:         240
 PW_GRID|   Bounds   2           -120     119                Points:         240
 PW_GRID|   Bounds   3           -120     119                Points:         240
 PW_GRID| Volume element (a.u.^3)  0.1318E-01     Volume (a.u.^3)    182205.0337
 PW_GRID| Grid span                                                    FULLSPACE
 PW_GRID|   Distribution                         Average         Max         Min
 PW_GRID|   G-Vectors                           576000.0      576240      575760
 PW_GRID|   G-Rays                                2400.0        2401        2399
 PW_GRID|   Real Space Points                   576000.0      576000      576000

 PW_GRID| Information for grid number                                          3
 PW_GRID| Number of the reference grid                                         1
 PW_GRID| Grid distributed over                                    24 processors
 PW_GRID| Real space group dimensions                                    24    1
 PW_GRID| the grid is blocked:                                                NO
 PW_GRID| Cutoff [a.u.]                                                     27.8
 PW_GRID| spherical cutoff:                                                   NO
 PW_GRID|   Bounds   1            -67      67                Points:         135
 PW_GRID|   Bounds   2            -67      67                Points:         135
 PW_GRID|   Bounds   3            -67      67                Points:         135
 PW_GRID| Volume element (a.u.^3)  0.7406E-01     Volume (a.u.^3)    182205.0337
 PW_GRID| Grid span                                                    FULLSPACE
 PW_GRID|   Distribution                         Average         Max         Min
 PW_GRID|   G-Vectors                           102515.6      102735      102330
 PW_GRID|   G-Rays                                 759.4         761         758
 PW_GRID|   Real Space Points                   102515.6      109350       91125

 PW_GRID| Information for grid number                                          4
 PW_GRID| Number of the reference grid                                         1
 PW_GRID| Grid distributed over                                    24 processors
 PW_GRID| Real space group dimensions                                    24    1
 PW_GRID| the grid is blocked:                                                NO
 PW_GRID| Cutoff [a.u.]                                                      9.3
 PW_GRID| spherical cutoff:                                                   NO
 PW_GRID|   Bounds   1            -40      39                Points:          80
 PW_GRID|   Bounds   2            -40      39                Points:          80
 PW_GRID|   Bounds   3            -40      39                Points:          80
 PW_GRID| Volume element (a.u.^3)  0.3559         Volume (a.u.^3)    182205.0337
 PW_GRID| Grid span                                                    FULLSPACE
 PW_GRID|   Distribution                         Average         Max         Min
 PW_GRID|   G-Vectors                            21333.3       21360       21280
 PW_GRID|   G-Rays                                 266.7         267         266
 PW_GRID|   Real Space Points                    21333.3       25600       19200

 POISSON| Solver                                                         WAVELET
 POISSON| Wavelet| Scaling function                                           40
 POISSON| Periodicity                                                       NONE

 RS_GRID| Information for grid number                                          1
 RS_GRID|   Bounds   1           -202     202                Points:         405
 RS_GRID|   Bounds   2           -202     202                Points:         405
 RS_GRID|   Bounds   3           -202     202                Points:         405
 RS_GRID| Real space distribution over                                  4 groups
 RS_GRID| Real space distribution along direction                              2
 RS_GRID| Border size                                                         32
 RS_GRID| Real space distribution over                                  6 groups
 RS_GRID| Real space distribution along direction                              3
 RS_GRID| Border size                                                         32
 RS_GRID|   Distribution                         Average         Max         Min
 RS_GRID|   Planes                                 165.2         166         165
 RS_GRID|   Distribution                         Average         Max         Min
 RS_GRID|   Planes                                 131.5         132         131

 RS_GRID| Information for grid number                                          2
 RS_GRID|   Bounds   1           -120     119                Points:         240
 RS_GRID|   Bounds   2           -120     119                Points:         240
 RS_GRID|   Bounds   3           -120     119                Points:         240
 RS_GRID| Real space distribution over                                  4 groups
 RS_GRID| Real space distribution along direction                              2
 RS_GRID| Border size                                                         34
 RS_GRID| Real space distribution over                                  6 groups
 RS_GRID| Real space distribution along direction                              3
 RS_GRID| Border size                                                         34
 RS_GRID|   Distribution                         Average         Max         Min
 RS_GRID|   Planes                                 128.0         128         128
 RS_GRID|   Distribution                         Average         Max         Min
 RS_GRID|   Planes                                 108.0         108         108

 RS_GRID| Information for grid number                                          3
 RS_GRID|   Bounds   1            -67      67                Points:         135
 RS_GRID|   Bounds   2            -67      67                Points:         135
 RS_GRID|   Bounds   3            -67      67                Points:         135
 RS_GRID| Real space fully replicated
 RS_GRID| Group size                                                           1

 RS_GRID| Information for grid number                                          4
 RS_GRID|   Bounds   1            -40      39                Points:          80
 RS_GRID|   Bounds   2            -40      39                Points:          80
 RS_GRID|   Bounds   3            -40      39                Points:          80
 RS_GRID| Real space fully replicated
 RS_GRID| Group size                                                           1

  HFX_INFO| Replica ID:                                                        1
  HFX_INFO| FRACTION:                                               0.2500000000
  HFX_INFO| Interaction Potential:                                       COULOMB
  HFX_INFO| EPS_SCHWARZ:                                                 1.0E-10
  HFX_INFO| EPS_SCHWARZ_FORCES                                           1.0E-08
  HFX_INFO| EPS_STORAGE_SCALING:                                         1.0E+00
  HFX_INFO| NBINS:                                                            64
  HFX_INFO| BLOCK_SIZE:                                                        1
  HFX_INFO| Number of periodic shells considered:                           NONE
  HFX_INFO| Number of periodic cells considered:                            NONE

 
 RI-RPA| using GPW style
 

 OVERLAP MATRIX CONDITION NUMBER
 1-Norm Condition Number (Estimate)
   CN : |A|*|A^-1|:  4.590E+000 *  1.332E+002   = 6.114E+002  Log(1-CN):  2.7863
 1-Norm and 2-Norm Condition Numbers using Diagonalization
   CN : |A|*|A^-1|:  4.590E+000 *  1.332E+002   = 6.114E+002  Log(1-CN):  2.7863
   CN : max/min ev:  3.636E+000 /  1.176E-002   = 3.092E+002  Log(2-CN):  2.4903

 Number of electrons:                                                         10
 Number of occupied orbitals:                                                  5
 Number of molecular orbitals:                                                28

 Number of orbital functions:                                                 28
 Number of independent orbital functions:                                     28

 Extrapolation method: initial_guess

 Atomic guess: The first density matrix is obtained in terms of atomic orbitals
               and electronic configurations assigned to each atomic kind

 Guess for atomic kind: B

 Electronic structure
    Total number of core electrons                                          0.00
    Total number of valence electrons                                       5.00
    Total number of electrons                                               5.00
    Multiplicity                                                   not specified
    S      2.00  2.00
    P      1.00


 *******************************************************************************
                  Iteration          Convergence                     Energy [au]
 *******************************************************************************
                          1        0.612489E-01                 -24.304439508901
                          2        0.220484E-01                 -24.305945213911
                          3        0.367076E-03                 -24.306247196960
                          4        0.456899E-05                 -24.306247340970
                          5        0.241868E-07                 -24.306247340986

 Energy components [Hartree]           Total Energy ::          -24.306247340986
                                        Band Energy ::          -13.825803348850
                                     Kinetic Energy ::           23.970530113188
                                   Potential Energy ::          -48.276777454174
                                      Virial (-V/T) ::            2.014005415242
                                        Core Energy ::          -32.361048727638
                                          XC Energy ::           -3.546375173816
                                     Coulomb Energy ::           11.601176560468

 Orbital energies  State     L     Occupation   Energy[a.u.]          Energy[eV]

                       1     0          2.000      -6.531739         -177.737651
                       2     0          2.000      -0.324835           -8.839199

                       1     1          1.000      -0.112657           -3.065543


 Total Electron Density at R=0:                                        58.671969
 Re-scaling the density matrix to get the right number of electrons
                  # Electrons              Trace(P)               Scaling factor
                           10                10.000                        1.000


 SCF WAVEFUNCTION OPTIMIZATION

  Step     Update method      Time    Convergence         Total energy    Change
  ------------------------------------------------------------------------------

  HFX_MEM_INFO| Est. max. program size before HFX [MiB]:                    2124
  HFX_MEM_INFO| Number of cart. primitive ERI's calculated:            188947463
  HFX_MEM_INFO| Number of sph. ERI's calculated:                          230496
  HFX_MEM_INFO| Number of sph. ERI's stored in-core:                      230496
  HFX_MEM_INFO| Number of sph. ERI's stored on disk:                           0
  HFX_MEM_INFO| Number of sph. ERI's calculated on the fly:                    0
  HFX_MEM_INFO| Total memory consumption ERI's RAM [MiB]:                      2
  HFX_MEM_INFO| Whereof max-vals [MiB]:                                        1
  HFX_MEM_INFO| Total compression factor ERI's RAM:                         1.11
  HFX_MEM_INFO| Total memory consumption ERI's disk [MiB]:                     0
  HFX_MEM_INFO| Total compression factor ERI's disk:                        0.00
  HFX_MEM_INFO| Size of density/Fock matrix [MiB]:                             0
  HFX_MEM_INFO| Size of buffers [MiB]:                                         0
  HFX_MEM_INFO| Est. max. program size after HFX  [MiB]:                    2634

     1 NoMix/Diag. 0.10E+00    8.3     0.34372936       -49.3968786203 -4.94E+01
     2 Broy./Diag. 0.10E+00    4.7     0.03842340       -49.2120608502  1.85E-01
     3 Broy./Diag. 0.10E+00    4.9     0.00885436       -49.1549299711  5.71E-02
     4 Broy./Diag. 0.10E+00    4.7     0.02732063       -49.1349865349  1.99E-02
     5 Broy./Diag. 0.10E+00    4.8     0.00525246       -49.1938498575 -5.89E-02
     6 Broy./Diag. 0.10E+00    4.9     0.00522736       -49.2155789486 -2.17E-02
     7 Broy./Diag. 0.10E+00    5.0     0.00168837       -49.2353971875 -1.98E-02
     8 Broy./Diag. 0.10E+00    5.0     0.00049402       -49.2390759467 -3.68E-03
     9 Broy./Diag. 0.10E+00    5.2     0.00225133       -49.2361120603  2.96E-03
    10 Broy./Diag. 0.10E+00    5.4     0.00069720       -49.2334333928  2.68E-03
    11 Broy./Diag. 0.10E+00    5.4     0.00030537       -49.2294585912  3.97E-03
    12 Broy./Diag. 0.10E+00    5.3     0.00044394       -49.2292722695  1.86E-04
    13 Broy./Diag. 0.10E+00    5.3     0.00009027       -49.2299808367 -7.09E-04
    14 Broy./Diag. 0.10E+00    5.2     0.00053172       -49.2297866562  1.94E-04
    15 Broy./Diag. 0.10E+00    5.2     0.00021411       -49.2307862545 -1.00E-03
    16 Broy./Diag. 0.10E+00    5.4     0.00018305       -49.2313540038 -5.68E-04
    17 Broy./Diag. 0.10E+00    5.3     0.00009634       -49.2313044385  4.96E-05
    18 Broy./Diag. 0.10E+00    5.3     0.00002683       -49.2310770731  2.27E-04
    19 Broy./Diag. 0.10E+00    5.3     0.00007807       -49.2304126093  6.64E-04
    20 Broy./Diag. 0.10E+00    5.3     0.00003939       -49.2301937952  2.19E-04
    21 Broy./Diag. 0.10E+00    5.3     0.00001870       -49.2300251035  1.69E-04
    22 Broy./Diag. 0.10E+00    5.3     0.00008083       -49.2298862870  1.39E-04
    23 Broy./Diag. 0.10E+00    5.3     0.00003357       -49.2299115077 -2.52E-05
    24 Broy./Diag. 0.10E+00    5.3     0.00001711       -49.2299512599 -3.98E-05
    25 Broy./Diag. 0.10E+00    5.3     0.00006992       -49.2300688592 -1.18E-04
    26 Broy./Diag. 0.10E+00    5.3     0.00005593       -49.2300997355 -3.09E-05
    27 Broy./Diag. 0.10E+00    5.3     0.00004586       -49.2301102050 -1.05E-05
    28 Broy./Diag. 0.10E+00    5.4     0.00005158       -49.2301296654 -1.95E-05
    29 Broy./Diag. 0.10E+00    5.3     0.00004406       -49.2301483793 -1.87E-05
    30 Broy./Diag. 0.10E+00    5.3     0.00004191       -49.2301469777  1.40E-06
    31 Broy./Diag. 0.10E+00    5.3     0.00004098       -49.2301556998 -8.72E-06
    32 Broy./Diag. 0.10E+00    5.3     0.00005977       -49.2301565452 -8.45E-07
    33 Broy./Diag. 0.10E+00    5.3     0.00008907       -49.2301669882 -1.04E-05
    34 Broy./Diag. 0.10E+00    5.3     0.00013218       -49.2301783441 -1.14E-05
    35 Broy./Diag. 0.10E+00    5.4     0.00019357       -49.2301656460  1.27E-05
    36 Broy./Diag. 0.10E+00    5.3     0.00029168       -49.2301571643  8.48E-06
    37 Broy./Diag. 0.10E+00    5.3     0.00042956       -49.2301443510  1.28E-05
    38 Broy./Diag. 0.10E+00    5.3     0.00063732       -49.2301084518  3.59E-05
    39 Broy./Diag. 0.10E+00    5.3     0.00094599       -49.2300933917  1.51E-05
    40 Broy./Diag. 0.10E+00    5.3     0.00140736       -49.2301107060 -1.73E-05
    41 Broy./Diag. 0.10E+00    5.3     0.00209492       -49.2301046820  6.02E-06
    42 Broy./Diag. 0.10E+00    5.3     0.00311707       -49.2301628102 -5.81E-05
    43 Broy./Diag. 0.10E+00    5.3     0.00462741       -49.2303063783 -1.44E-04
    44 Broy./Diag. 0.10E+00    5.3     0.00686355       -49.2302258617  8.05E-05
    45 Broy./Diag. 0.10E+00    5.3     0.01015921       -49.2301596296  6.62E-05
    46 Broy./Diag. 0.10E+00    5.3     0.01489620       -49.2301219555  3.77E-05
    47 Broy./Diag. 0.10E+00    5.3     0.02147701       -49.2300222401  9.97E-05
    48 Broy./Diag. 0.10E+00    5.3     0.02978166       -49.2299529453  6.93E-05
    49 Broy./Diag. 0.10E+00    5.3     0.03803889       -49.2298997968  5.31E-05
    50 Broy./Diag. 0.10E+00    5.3     0.04144926       -49.2296715950  2.28E-04
    51 Broy./Diag. 0.10E+00    5.3     0.05620589       -49.2293421767  3.29E-04
    52 Broy./Diag. 0.10E+00    5.2     0.06673717       -49.2287674721  5.75E-04
    53 Broy./Diag. 0.10E+00    5.3     0.06377982       -49.2273546676  1.41E-03
    54 Broy./Diag. 0.10E+00    5.3     0.05129623       -49.2256201799  1.73E-03
    55 Broy./Diag. 0.10E+00    5.3     0.03663548       -49.2240264446  1.59E-03
    56 Broy./Diag. 0.10E+00    5.3     0.02694400       -49.2225901385  1.44E-03
    57 Broy./Diag. 0.10E+00    5.3     0.02354224       -49.2216869564  9.03E-04
    58 Broy./Diag. 0.10E+00    5.3     0.01932882       -49.2210982348  5.89E-04
    59 Broy./Diag. 0.10E+00    5.4     0.01536510       -49.2205961369  5.02E-04
    60 Broy./Diag. 0.10E+00    5.3     0.01230460       -49.2205819684  1.42E-05
    61 Broy./Diag. 0.10E+00    5.3     0.00944670       -49.2210861563 -5.04E-04
    62 Broy./Diag. 0.10E+00    5.3     0.00837857       -49.2302430930 -9.16E-03
    63 Broy./Diag. 0.10E+00    5.2     0.00547721       -49.2207809388  9.46E-03
    64 Broy./Diag. 0.10E+00    5.3     0.00508557       -49.2279518425 -7.17E-03
    65 Broy./Diag. 0.10E+00    5.3     0.00902166       -49.2445580358 -1.66E-02
    66 Broy./Diag. 0.10E+00    5.3     0.02074836       -49.2692744985 -2.47E-02
    67 Broy./Diag. 0.10E+00    5.2     0.02780061       -49.2984457759 -2.92E-02
    68 Broy./Diag. 0.10E+00    5.2     0.03977943       -49.2721406390  2.63E-02
    69 Broy./Diag. 0.10E+00    5.2     0.05290931       -49.2534137877  1.87E-02
    70 Broy./Diag. 0.10E+00    5.3     0.04872923       -49.2361982678  1.72E-02
    71 Broy./Diag. 0.10E+00    5.2     0.04451842       -49.2268411498  9.36E-03
    72 Broy./Diag. 0.10E+00    5.2     0.04164894       -49.2690309619 -4.22E-02
    73 Broy./Diag. 0.10E+00    5.3     0.03201225       -49.2954253802 -2.64E-02
    74 Broy./Diag. 0.10E+00    5.3     0.04035648       -49.3173719527 -2.19E-02
    75 Broy./Diag. 0.10E+00    5.4     0.05403178       -49.2843154678  3.31E-02
    76 Broy./Diag. 0.10E+00    5.2     0.04131058       -49.2639016132  2.04E-02
    77 Broy./Diag. 0.10E+00    5.3     0.02356047       -49.2736550710 -9.75E-03
    78 Broy./Diag. 0.10E+00    5.3     0.02095224       -49.2847738092 -1.11E-02
    79 Broy./Diag. 0.10E+00    5.3     0.02519306       -49.2655278528  1.92E-02
    80 Broy./Diag. 0.10E+00    5.4     0.06143725       -49.2330088714  3.25E-02
    81 Broy./Diag. 0.10E+00    5.4     0.08989670       -49.2359130874 -2.90E-03
    82 Broy./Diag. 0.10E+00    5.4     0.08471189       -49.1861034261  4.98E-02
    83 Broy./Diag. 0.10E+00    5.4     0.03908837       -49.1793072486  6.80E-03
    84 Broy./Diag. 0.10E+00    5.4     0.03499917       -49.1672023720  1.21E-02
    85 Broy./Diag. 0.10E+00    5.2     0.03601786       -49.1744134249 -7.21E-03
    86 Broy./Diag. 0.10E+00    5.2     0.03318838       -49.2090709860 -3.47E-02
    87 Broy./Diag. 0.10E+00    5.3     0.01959532       -49.2355738992 -2.65E-02
    88 Broy./Diag. 0.10E+00    5.3     0.01170575       -49.2383958838 -2.82E-03
    89 Broy./Diag. 0.10E+00    5.4     0.05038404       -49.2308101534  7.59E-03
    90 Broy./Diag. 0.10E+00    5.4     0.09073688       -49.2231495059  7.66E-03
    91 Broy./Diag. 0.10E+00    5.2     0.08270923       -49.2096042924  1.35E-02
    92 Broy./Diag. 0.10E+00    5.2     0.08163410       -49.2180132143 -8.41E-03
    93 Broy./Diag. 0.10E+00    5.2     0.07219314       -49.2108998742  7.11E-03
    94 Broy./Diag. 0.10E+00    5.2     0.10468008       -49.2224689398 -1.16E-02
    95 Broy./Diag. 0.10E+00    5.2     0.08877478       -49.2435963989 -2.11E-02
    96 Broy./Diag. 0.10E+00    5.3     0.06524667       -49.2539703719 -1.04E-02
    97 Broy./Diag. 0.10E+00    5.3     0.04232464       -49.2547603734 -7.90E-04
    98 Broy./Diag. 0.10E+00    5.3     0.04456928       -49.2359724060  1.88E-02
    99 Broy./Diag. 0.10E+00    5.3     0.03385088       -49.2194736063  1.65E-02
   100 Broy./Diag. 0.10E+00    5.3     0.01041287       -49.2225758364 -3.10E-03
   101 Broy./Diag. 0.10E+00    5.2     0.02893752       -49.2183817848  4.19E-03
   102 Broy./Diag. 0.10E+00    5.3     0.00720665       -49.1896255713  2.88E-02
   103 Broy./Diag. 0.10E+00    5.3     0.02717680       -49.1963712459 -6.75E-03
   104 Broy./Diag. 0.10E+00    5.2     0.06368470       -49.1793917337  1.70E-02
   105 Broy./Diag. 0.10E+00    5.3     0.05177649       -49.2285116533 -4.91E-02
   106 Broy./Diag. 0.10E+00    5.3     0.05709192       -49.2780947035 -4.96E-02
   107 Broy./Diag. 0.10E+00    5.3     0.06772401       -49.3190276072 -4.09E-02
   108 Broy./Diag. 0.10E+00    5.3     0.03252452       -49.3142030927  4.82E-03
   109 Broy./Diag. 0.10E+00    5.3     0.05996436       -49.2916146345  2.26E-02
   110 Broy./Diag. 0.10E+00    5.3     0.04300596       -49.2667109957  2.49E-02
   111 Broy./Diag. 0.10E+00    5.3     0.02347614       -49.2505940713  1.61E-02
   112 Broy./Diag. 0.10E+00    5.3     0.02594402       -49.2409305191  9.66E-03
   113 Broy./Diag. 0.10E+00    5.3     0.02008927       -49.2293452736  1.16E-02
   114 Broy./Diag. 0.10E+00    5.3     0.03059011       -49.2210873868  8.26E-03
   115 Broy./Diag. 0.10E+00    5.3     0.04196464       -49.2210947975 -7.41E-06
   116 Broy./Diag. 0.10E+00    5.2     0.04944623       -49.2184100543  2.68E-03
   117 Broy./Diag. 0.10E+00    5.2     0.04699049       -49.2148012906  3.61E-03
   118 Broy./Diag. 0.10E+00    5.2     0.06234344       -49.2014216699  1.34E-02
   119 Broy./Diag. 0.10E+00    5.3     0.05432785       -49.1742701768  2.72E-02
   120 Broy./Diag. 0.10E+00    5.3     0.13931516       -49.1830943374 -8.82E-03
   121 Broy./Diag. 0.10E+00    5.3     0.09124281       -49.2615351042 -7.84E-02
   122 Broy./Diag. 0.10E+00    5.3     0.04621895       -49.2813724506 -1.98E-02
   123 Broy./Diag. 0.10E+00    5.3     0.03567200       -49.2730805808  8.29E-03
   124 Broy./Diag. 0.10E+00    5.3     0.04118837       -49.2751413643 -2.06E-03
   125 Broy./Diag. 0.10E+00    5.3     0.03522462       -49.2790555169 -3.91E-03
   126 Broy./Diag. 0.10E+00    5.3     0.02994314       -49.2794646097 -4.09E-04
   127 Broy./Diag. 0.10E+00    5.2     0.03186473       -49.2700552535  9.41E-03
   128 Broy./Diag. 0.10E+00    5.3     0.02152158       -49.2716044024 -1.55E-03
   129 Broy./Diag. 0.10E+00    5.3     0.04288807       -49.2734826531 -1.88E-03
   130 Broy./Diag. 0.10E+00    5.2     0.04065666       -49.2738796349 -3.97E-04
   131 Broy./Diag. 0.10E+00    5.3     0.02368022       -49.2692123672  4.67E-03
   132 Broy./Diag. 0.10E+00    5.3     0.02829822       -49.2476977493  2.15E-02
   133 Broy./Diag. 0.10E+00    5.2     0.00761581       -49.2417714686  5.93E-03
   134 Broy./Diag. 0.10E+00    5.3     0.00603629       -49.2450275314 -3.26E-03
   135 Broy./Diag. 0.10E+00    5.2     0.00510881       -49.2437907365  1.24E-03
   136 Broy./Diag. 0.10E+00    5.3     0.01366962       -49.2464147987 -2.62E-03
   137 Broy./Diag. 0.10E+00    5.3     0.00799942       -49.2420086330  4.41E-03
   138 Broy./Diag. 0.10E+00    5.3     0.05598755       -49.2234997234  1.85E-02
   139 Broy./Diag. 0.10E+00    5.2     0.04868846       -49.1952267411  2.83E-02
   140 Broy./Diag. 0.10E+00    5.3     0.07371665       -49.1569572412  3.83E-02
   141 Broy./Diag. 0.10E+00    5.2     0.06939180       -49.1680876580 -1.11E-02
   142 Broy./Diag. 0.10E+00    5.2     0.09940846       -49.2094739258 -4.14E-02
   143 Broy./Diag. 0.10E+00    5.2     0.05663095       -49.2476288015 -3.82E-02
   144 Broy./Diag. 0.10E+00    5.3     0.03867885       -49.2570180804 -9.39E-03
   145 Broy./Diag. 0.10E+00    5.2     0.04431761       -49.2693904308 -1.24E-02
   146 Broy./Diag. 0.10E+00    5.2     0.05928599       -49.2693722932  1.81E-05
   147 Broy./Diag. 0.10E+00    5.2     0.06372081       -49.2710187924 -1.65E-03
   148 Broy./Diag. 0.10E+00    5.2     0.06144236       -49.2689356522  2.08E-03
   149 Broy./Diag. 0.10E+00    5.2     0.06375198       -49.2602636528  8.67E-03
   150 Broy./Diag. 0.10E+00    5.2     0.06948847       -49.2554829747  4.78E-03
   151 Broy./Diag. 0.10E+00    5.2     0.03107645       -49.2413252491  1.42E-02
   152 Broy./Diag. 0.10E+00    5.2     0.03693291       -49.2314216229  9.90E-03
   153 Broy./Diag. 0.10E+00    5.3     0.06185033       -49.2460229558 -1.46E-02
   154 Broy./Diag. 0.10E+00    5.2     0.06090293       -49.2630730024 -1.71E-02
   155 Broy./Diag. 0.10E+00    5.2     0.06580859       -49.2589185769  4.15E-03
   156 Broy./Diag. 0.10E+00    5.4     0.06977640       -49.2472259283  1.17E-02
   157 Broy./Diag. 0.10E+00    5.3     0.09530686       -49.2470057835  2.20E-04
   158 Broy./Diag. 0.10E+00    5.3     0.04476147       -49.2595684136 -1.26E-02
   159 Broy./Diag. 0.10E+00    5.3     0.02992864       -49.2823052897 -2.27E-02
   160 Broy./Diag. 0.10E+00    5.4     0.02847037       -49.2925484888 -1.02E-02
   161 Broy./Diag. 0.10E+00    5.4     0.03681258       -49.2864182889  6.13E-03
   162 Broy./Diag. 0.10E+00    5.3     0.05162748       -49.2491660028  3.73E-02
   163 Broy./Diag. 0.10E+00    5.3     0.02888738       -49.2320038125  1.72E-02
   164 Broy./Diag. 0.10E+00    5.3     0.05278845       -49.2379668662 -5.96E-03
   165 Broy./Diag. 0.10E+00    5.4     0.03763015       -49.2019705042  3.60E-02
   166 Broy./Diag. 0.10E+00    5.3     0.03021604       -49.1859395998  1.60E-02
   167 Broy./Diag. 0.10E+00    5.3     0.04162009       -49.1707802345  1.52E-02
   168 Broy./Diag. 0.10E+00    5.3     0.04573315       -49.1759437851 -5.16E-03
   169 Broy./Diag. 0.10E+00    5.3     0.06110231       -49.1689868288  6.96E-03
   170 Broy./Diag. 0.10E+00    5.3     0.07609832       -49.1617284363  7.26E-03
   171 Broy./Diag. 0.10E+00    5.3     0.06649637       -49.1644097086 -2.68E-03
   172 Broy./Diag. 0.10E+00    5.3     0.05535242       -49.1633493360  1.06E-03
   173 Broy./Diag. 0.10E+00    5.2     0.04438571       -49.1714200397 -8.07E-03
   174 Broy./Diag. 0.10E+00    5.2     0.03021104       -49.1728527219 -1.43E-03
   175 Broy./Diag. 0.10E+00    5.2     0.07647108       -49.1626586876  1.02E-02
   176 Broy./Diag. 0.10E+00    5.2     0.07000672       -49.1962569815 -3.36E-02
   177 Broy./Diag. 0.10E+00    5.4     0.03582408       -49.2158207991 -1.96E-02
   178 Broy./Diag. 0.10E+00    5.4     0.05406398       -49.2285420623 -1.27E-02
   179 Broy./Diag. 0.10E+00    5.3     0.05202101       -49.2312809929 -2.74E-03
   180 Broy./Diag. 0.10E+00    5.4     0.06954257       -49.2430894869 -1.18E-02
   181 Broy./Diag. 0.10E+00    5.3     0.11448138       -49.2503463054 -7.26E-03
   182 Broy./Diag. 0.10E+00    5.4     0.08169228       -49.2134711461  3.69E-02
   183 Broy./Diag. 0.10E+00    5.3     0.03188054       -49.2036208477  9.85E-03
   184 Broy./Diag. 0.10E+00    5.4     0.02786635       -49.1691039563  3.45E-02
   185 Broy./Diag. 0.10E+00    5.3     0.03902981       -49.1572925191  1.18E-02
   186 Broy./Diag. 0.10E+00    5.2     0.05574556       -49.1787744824 -2.15E-02
   187 Broy./Diag. 0.10E+00    5.3     0.04415099       -49.2008406653 -2.21E-02
   188 Broy./Diag. 0.10E+00    5.2     0.05079980       -49.2229252975 -2.21E-02
   189 Broy./Diag. 0.10E+00    5.2     0.02616173       -49.2332478957 -1.03E-02
   190 Broy./Diag. 0.10E+00    5.3     0.05010998       -49.1980013017  3.52E-02
   191 Broy./Diag. 0.10E+00    5.3     0.05316884       -49.2029108676 -4.91E-03
   192 Broy./Diag. 0.10E+00    5.2     0.04375163       -49.2421844064 -3.93E-02
   193 Broy./Diag. 0.10E+00    5.3     0.05062115       -49.2751313968 -3.29E-02
   194 Broy./Diag. 0.10E+00    5.2     0.02247109       -49.2883900435 -1.33E-02
   195 Broy./Diag. 0.10E+00    5.3     0.01889455       -49.2877543193  6.36E-04
   196 Broy./Diag. 0.10E+00    5.3     0.01663356       -49.2790893985  8.66E-03
   197 Broy./Diag. 0.10E+00    5.3     0.01811613       -49.2728246945  6.26E-03
   198 Broy./Diag. 0.10E+00    5.3     0.01638633       -49.2745333184 -1.71E-03
   199 Broy./Diag. 0.10E+00    5.3     0.00993193       -49.2706049890  3.93E-03
   200 Broy./Diag. 0.10E+00    5.4     0.00622783       -49.2649090972  5.70E-03
   201 Broy./Diag. 0.10E+00    5.3     0.00809403       -49.2636144449  1.29E-03
   202 Broy./Diag. 0.10E+00    5.3     0.01558029       -49.2505542371  1.31E-02
   203 Broy./Diag. 0.10E+00    5.2     0.01387517       -49.2360086798  1.45E-02
   204 Broy./Diag. 0.10E+00    5.2     0.01252069       -49.2329413829  3.07E-03
   205 Broy./Diag. 0.10E+00    5.2     0.02004453       -49.2308838598  2.06E-03
   206 Broy./Diag. 0.10E+00    5.2     0.02972665       -49.2309514418 -6.76E-05
   207 Broy./Diag. 0.10E+00    5.2     0.04105922       -49.2319245288 -9.73E-04
   208 Broy./Diag. 0.10E+00    5.3     0.05431741       -49.2322220951 -2.98E-04
   209 Broy./Diag. 0.10E+00    5.3     0.06368971       -49.2303383591  1.88E-03
   210 Broy./Diag. 0.10E+00    5.3     0.06132957       -49.2292211890  1.12E-03
   211 Broy./Diag. 0.10E+00    5.2     0.04802405       -49.2231888260  6.03E-03
   212 Broy./Diag. 0.10E+00    5.3     0.05045534       -49.2208168010  2.37E-03
   213 Broy./Diag. 0.10E+00    5.2     0.04616312       -49.2169334663  3.88E-03
   214 Broy./Diag. 0.10E+00    5.3     0.03791978       -49.2145346017  2.40E-03
   215 Broy./Diag. 0.10E+00    5.2     0.02842721       -49.2130734538  1.46E-03
   216 Broy./Diag. 0.10E+00    5.2     0.02299202       -49.2141583482 -1.08E-03
   217 Broy./Diag. 0.10E+00    5.3     0.02348925       -49.2179196220 -3.76E-03
   218 Broy./Diag. 0.10E+00    5.2     0.02852302       -49.2279215950 -1.00E-02
   219 Broy./Diag. 0.10E+00    5.2     0.03402259       -49.2480159488 -2.01E-02
   220 Broy./Diag. 0.10E+00    5.2     0.03315137       -49.2557355760 -7.72E-03
   221 Broy./Diag. 0.10E+00    5.2     0.03893259       -49.2837651498 -2.80E-02
   222 Broy./Diag. 0.10E+00    5.2     0.05427090       -49.2744985748  9.27E-03
   223 Broy./Diag. 0.10E+00    5.2     0.07786580       -49.2609043452  1.36E-02
   224 Broy./Diag. 0.10E+00    5.2     0.02928894       -49.2445060827  1.64E-02
   225 Broy./Diag. 0.10E+00    5.3     0.03800980       -49.2604666215 -1.60E-02
   226 Broy./Diag. 0.10E+00    5.2     0.02945054       -49.2757412214 -1.53E-02
   227 Broy./Diag. 0.10E+00    5.3     0.02667820       -49.2754499908  2.91E-04
   228 Broy./Diag. 0.10E+00    5.4     0.05834319       -49.2781117614 -2.66E-03
   229 Broy./Diag. 0.10E+00    5.2     0.05931545       -49.2477761080  3.03E-02
   230 Broy./Diag. 0.10E+00    5.2     0.04897500       -49.2387855167  8.99E-03
   231 Broy./Diag. 0.10E+00    5.2     0.02971047       -49.2455592138 -6.77E-03
   232 Broy./Diag. 0.10E+00    5.3     0.03510049       -49.2454261662  1.33E-04
   233 Broy./Diag. 0.10E+00    5.4     0.03108397       -49.2464397903 -1.01E-03
   234 Broy./Diag. 0.10E+00    5.3     0.03139598       -49.2499134124 -3.47E-03
   235 Broy./Diag. 0.10E+00    5.3     0.02526009       -49.2485658970  1.35E-03
   236 Broy./Diag. 0.10E+00    5.2     0.03266958       -49.2456884326  2.88E-03
   237 Broy./Diag. 0.10E+00    5.2     0.02800807       -49.2411796213  4.51E-03
   238 Broy./Diag. 0.10E+00    5.2     0.03414876       -49.2556402159 -1.45E-02
   239 Broy./Diag. 0.10E+00    5.3     0.03004436       -49.2741442550 -1.85E-02
   240 Broy./Diag. 0.10E+00    5.2     0.02495791       -49.2768054942 -2.66E-03
   241 Broy./Diag. 0.10E+00    5.3     0.02190200       -49.2635961776  1.32E-02
   242 Broy./Diag. 0.10E+00    5.3     0.02686372       -49.2567638769  6.83E-03
   243 Broy./Diag. 0.10E+00    5.3     0.04782120       -49.2579469222 -1.18E-03
   244 Broy./Diag. 0.10E+00    5.3     0.04338538       -49.2279885467  3.00E-02
   245 Broy./Diag. 0.10E+00    5.2     0.04851087       -49.2280034499 -1.49E-05
   246 Broy./Diag. 0.10E+00    5.2     0.04798479       -49.2421750331 -1.42E-02
   247 Broy./Diag. 0.10E+00    5.2     0.05359329       -49.2486929451 -6.52E-03
   248 Broy./Diag. 0.10E+00    5.3     0.05059163       -49.2464458086  2.25E-03
   249 Broy./Diag. 0.10E+00    5.3     0.03740327       -49.2472555367 -8.10E-04
   250 Broy./Diag. 0.10E+00    5.3     0.02468237       -49.2647259683 -1.75E-02
   251 Broy./Diag. 0.10E+00    5.3     0.02125724       -49.2814434573 -1.67E-02
   252 Broy./Diag. 0.10E+00    5.3     0.03402534       -49.2832428727 -1.80E-03
   253 Broy./Diag. 0.10E+00    5.3     0.03355054       -49.2728997321  1.03E-02
   254 Broy./Diag. 0.10E+00    5.3     0.04403445       -49.2638690679  9.03E-03
   255 Broy./Diag. 0.10E+00    5.3     0.04957743       -49.2490217257  1.48E-02
   256 Broy./Diag. 0.10E+00    5.3     0.04635890       -49.2238703458  2.52E-02
   257 Broy./Diag. 0.10E+00    5.4     0.10646912       -49.1941666256  2.97E-02
   258 Broy./Diag. 0.10E+00    5.6     0.06908085       -49.2334980517 -3.93E-02
   259 Broy./Diag. 0.10E+00    5.4     0.03516322       -49.2595753004 -2.61E-02
   260 Broy./Diag. 0.10E+00    5.3     0.05824284       -49.2685612510 -8.99E-03
   261 Broy./Diag. 0.10E+00    5.3     0.02778305       -49.2668818460  1.68E-03
   262 Broy./Diag. 0.10E+00    5.3     0.03201100       -49.2591409676  7.74E-03
   263 Broy./Diag. 0.10E+00    5.3     0.01633900       -49.2547039117  4.44E-03
   264 Broy./Diag. 0.10E+00    5.3     0.02333575       -49.2452415992  9.46E-03
   265 Broy./Diag. 0.10E+00    5.3     0.05565559       -49.2299790635  1.53E-02
   266 Broy./Diag. 0.10E+00    5.3     0.06781181       -49.2153948152  1.46E-02
   267 Broy./Diag. 0.10E+00    5.3     0.06600391       -49.2073355750  8.06E-03
   268 Broy./Diag. 0.10E+00    5.3     0.07449540       -49.2170364464 -9.70E-03
   269 Broy./Diag. 0.10E+00    5.3     0.09352755       -49.2457599483 -2.87E-02
   270 Broy./Diag. 0.10E+00    5.3     0.05283279       -49.2728383085 -2.71E-02
   271 Broy./Diag. 0.10E+00    5.3     0.04780562       -49.2752050135 -2.37E-03
   272 Broy./Diag. 0.10E+00    5.3     0.03543247       -49.2639522840  1.13E-02
   273 Broy./Diag. 0.10E+00    5.4     0.02653701       -49.2440106654  1.99E-02
   274 Broy./Diag. 0.10E+00    5.4     0.05248534       -49.2183495021  2.57E-02
   275 Broy./Diag. 0.10E+00    5.3     0.04569697       -49.1964262246  2.19E-02
   276 Broy./Diag. 0.10E+00    5.3     0.13496490       -49.2209695431 -2.45E-02
   277 Broy./Diag. 0.10E+00    5.3     0.10505631       -49.2359152685 -1.49E-02
   278 Broy./Diag. 0.10E+00    5.3     0.08124472       -49.2233577275  1.26E-02
   279 Broy./Diag. 0.10E+00    5.3     0.06057959       -49.1530854915  7.03E-02
   280 Broy./Diag. 0.10E+00    5.3     0.07708820       -49.1460205333  7.06E-03
   281 Broy./Diag. 0.10E+00    5.3     0.08052160       -49.1532148453 -7.19E-03
   282 Broy./Diag. 0.10E+00    5.3     0.05719321       -49.1682079738 -1.50E-02
   283 Broy./Diag. 0.10E+00    5.3     0.05591539       -49.1732605570 -5.05E-03
   284 Broy./Diag. 0.10E+00    5.4     0.06509849       -49.1668853031  6.38E-03
   285 Broy./Diag. 0.10E+00    5.3     0.06878875       -49.1420168621  2.49E-02
   286 Broy./Diag. 0.10E+00    5.3     0.06080027       -49.1143720574  2.76E-02
   287 Broy./Diag. 0.10E+00    5.2     0.19262173       -49.1420436869 -2.77E-02
   288 Broy./Diag. 0.10E+00    5.2     0.09796212       -49.2203854196 -7.83E-02
   289 Broy./Diag. 0.10E+00    5.4     0.03665654       -49.2382952942 -1.79E-02
   290 Broy./Diag. 0.10E+00    5.2     0.05693656       -49.2233926668  1.49E-02
   291 Broy./Diag. 0.10E+00    5.2     0.06109810       -49.2088962491  1.45E-02
   292 Broy./Diag. 0.10E+00    5.2     0.03333735       -49.2300423448 -2.11E-02
   293 Broy./Diag. 0.10E+00    5.2     0.02139670       -49.2604718844 -3.04E-02
   294 Broy./Diag. 0.10E+00    5.2     0.02496169       -49.2600523122  4.20E-04
   295 Broy./Diag. 0.10E+00    5.3     0.04168373       -49.2572832623  2.77E-03
   296 Broy./Diag. 0.10E+00    5.2     0.06326848       -49.2280532263  2.92E-02
   297 Broy./Diag. 0.10E+00    5.3     0.04937464       -49.1809509032  4.71E-02
   298 Broy./Diag. 0.10E+00    5.3     0.10693211       -49.1835753688 -2.62E-03
   299 Broy./Diag. 0.10E+00    5.3     0.05342855       -49.2306423639 -4.71E-02
   300 Broy./Diag. 0.10E+00    5.3     0.03243911       -49.2447197767 -1.41E-02
   301 Broy./Diag. 0.10E+00    5.3     0.06929037       -49.2361236927  8.60E-03
   302 Broy./Diag. 0.10E+00    5.3     0.06348221       -49.2517182631 -1.56E-02
   303 Broy./Diag. 0.10E+00    5.3     0.05520069       -49.2407025153  1.10E-02
   304 Broy./Diag. 0.10E+00    5.3     0.05585800       -49.2234746884  1.72E-02
   305 Broy./Diag. 0.10E+00    5.3     0.04648224       -49.1985653032  2.49E-02
   306 Broy./Diag. 0.10E+00    5.3     0.05871913       -49.1744303958  2.41E-02
   307 Broy./Diag. 0.10E+00    5.3     0.05094310       -49.1565667907  1.79E-02
   308 Broy./Diag. 0.10E+00    5.3     0.05408222       -49.1513503377  5.22E-03
   309 Broy./Diag. 0.10E+00    5.4     0.05711093       -49.1546117444 -3.26E-03
   310 Broy./Diag. 0.10E+00    5.3     0.03964661       -49.1559167420 -1.30E-03
   311 Broy./Diag. 0.10E+00    5.3     0.04142695       -49.1729084817 -1.70E-02
   312 Broy./Diag. 0.10E+00    5.3     0.04045487       -49.1853206921 -1.24E-02
   313 Broy./Diag. 0.10E+00    5.3     0.03541712       -49.1883547305 -3.03E-03
   314 Broy./Diag. 0.10E+00    5.5     0.06697086       -49.1861976082  2.16E-03
   315 Broy./Diag. 0.10E+00    5.2     0.05782068       -49.2044289214 -1.82E-02
   316 Broy./Diag. 0.10E+00    5.2     0.08073237       -49.2331274045 -2.87E-02
   317 Broy./Diag. 0.10E+00    5.2     0.04043051       -49.2471553698 -1.40E-02
   318 Broy./Diag. 0.10E+00    5.3     0.14464104       -49.2486139426 -1.46E-03
   319 Broy./Diag. 0.10E+00    5.3     0.08645018       -49.2358700433  1.27E-02
   320 Broy./Diag. 0.10E+00    5.4     0.04234768       -49.1987205582  3.71E-02
   321 Broy./Diag. 0.10E+00    5.3     0.05307038       -49.2216846006 -2.30E-02
   322 Broy./Diag. 0.10E+00    5.3     0.04148124       -49.2610643067 -3.94E-02
   323 Broy./Diag. 0.10E+00    5.3     0.03500797       -49.2789477799 -1.79E-02
   324 Broy./Diag. 0.10E+00    5.3     0.01787674       -49.2623343158  1.66E-02
   325 Broy./Diag. 0.10E+00    5.2     0.05579884       -49.2354052743  2.69E-02
   326 Broy./Diag. 0.10E+00    5.2     0.05094036       -49.2130105380  2.24E-02
   327 Broy./Diag. 0.10E+00    5.2     0.02955844       -49.1996885717  1.33E-02
   328 Broy./Diag. 0.10E+00    5.2     0.00866843       -49.1991784881  5.10E-04
   329 Broy./Diag. 0.10E+00    5.3     0.00884057       -49.1987973082  3.81E-04
   330 Broy./Diag. 0.10E+00    5.2     0.00898888       -49.1971520683  1.65E-03
   331 Broy./Diag. 0.10E+00    5.2     0.02067649       -49.1911794570  5.97E-03
   332 Broy./Diag. 0.10E+00    5.2     0.04558577       -49.1882171158  2.96E-03
   333 Broy./Diag. 0.10E+00    5.3     0.05656361       -49.2121105260 -2.39E-02
   334 Broy./Diag. 0.10E+00    5.3     0.05307856       -49.2313554285 -1.92E-02
   335 Broy./Diag. 0.10E+00    5.3     0.05501357       -49.2219766065  9.38E-03
   336 Broy./Diag. 0.10E+00    5.2     0.04406207       -49.2273481226 -5.37E-03
   337 Broy./Diag. 0.10E+00    5.3     0.06771907       -49.2594861549 -3.21E-02
   338 Broy./Diag. 0.10E+00    5.2     0.06609306       -49.2701598022 -1.07E-02
   339 Broy./Diag. 0.10E+00    5.3     0.06267298       -49.2795992532 -9.44E-03
   340 Broy./Diag. 0.10E+00    5.3     0.06986224       -49.2766339994  2.97E-03
   341 Broy./Diag. 0.10E+00    5.3     0.05269677       -49.2517762998  2.49E-02
   342 Broy./Diag. 0.10E+00    5.3     0.04406959       -49.2280553676  2.37E-02
   343 Broy./Diag. 0.10E+00    5.3     0.07053539       -49.1997508427  2.83E-02
   344 Broy./Diag. 0.10E+00    5.3     0.08705560       -49.2091061313 -9.36E-03
   345 Broy./Diag. 0.10E+00    5.3     0.06177388       -49.2281358842 -1.90E-02
   346 Broy./Diag. 0.10E+00    5.3     0.04971701       -49.2176043405  1.05E-02
   347 Broy./Diag. 0.10E+00    5.2     0.03209384       -49.1854226226  3.22E-02
   348 Broy./Diag. 0.10E+00    5.3     0.03468843       -49.1500762442  3.53E-02
   349 Broy./Diag. 0.10E+00    5.2     0.05297906       -49.1197431299  3.03E-02
   350 Broy./Diag. 0.10E+00    5.2     0.05699225       -49.0996975875  2.00E-02
   351 Broy./Diag. 0.10E+00    5.3     0.02207096       -49.1305324188 -3.08E-02
   352 Broy./Diag. 0.10E+00    5.3     0.06234208       -49.1573824823 -2.69E-02
   353 Broy./Diag. 0.10E+00    5.3     0.05208990       -49.1510822935  6.30E-03
[...]
   418 Broy./Diag. 0.10E+00    5.3     0.05948428       -49.0923285662  3.26E-02
   419 Broy./Diag. 0.10E+00    5.3     0.05348243       -49.0612063348  3.11E-02
   420 Broy./Diag. 0.10E+00    5.3     0.04571241       -49.0341618627  2.70E-02
   421 Broy./Diag. 0.10E+00    5.3     0.03807021       -49.0120194484  2.21E-02
   422 Broy./Diag. 0.10E+00    5.3     0.03178722       -48.9926609167  1.94E-02
   423 Broy./Diag. 0.10E+00    5.3     0.02753584       -48.9854343075  7.23E-03
   424 Broy./Diag. 0.10E+00    5.3     0.02918407       -48.9799324020  5.50E-03
   425 Broy./Diag. 0.10E+00    5.3     0.03254707       -48.9703074951  9.62E-03
   426 Broy./Diag. 0.10E+00    5.4     0.03822244       -48.9572845873  1.30E-02
   427 Broy./Diag. 0.10E+00    5.3     0.04836167       -48.9428153526  1.45E-02
   428 Broy./Diag. 0.10E+00    5.3     0.05043224       -48.9222184177  2.06E-02
   429 Broy./Diag. 0.10E+00    5.3     0.05061870       -48.9054558825  1.68E-02
   430 Broy./Diag. 0.10E+00    5.4     0.04035989       -48.8948210322  1.06E-02
   431 Broy./Diag. 0.10E+00    5.4     0.04284871       -48.8904812061  4.34E-03
   432 Broy./Diag. 0.10E+00    5.4     0.02754666       -48.8691204668  2.14E-02
   433 Broy./Diag. 0.10E+00    5.4     0.04996568       -48.9519333299 -8.28E-02
   434 Broy./Diag. 0.10E+00    5.2     0.09181023       -49.0998482648 -1.48E-01
   435 Broy./Diag. 0.10E+00    5.2     0.07233614       -49.1442166013 -4.44E-02
   436 Broy./Diag. 0.10E+00    5.3     0.08720702       -49.1755795962 -3.14E-02
   437 Broy./Diag. 0.10E+00    5.3     0.07146371       -49.2118516281 -3.63E-02
   438 Broy./Diag. 0.10E+00    5.3     0.11429953       -49.2589812685 -4.71E-02
   439 Broy./Diag. 0.10E+00    5.3     0.10386680       -49.3173959874 -5.84E-02
   440 Broy./Diag. 0.10E+00    5.3     0.06700212       -49.3560283158 -3.86E-02
   441 Broy./Diag. 0.10E+00    5.3     0.05263488       -49.3601403551 -4.11E-03
   442 Broy./Diag. 0.10E+00    5.3     0.03816908       -49.3526773803  7.46E-03
   443 Broy./Diag. 0.10E+00    5.3     0.03036248       -49.3608266558 -8.15E-03
   444 Broy./Diag. 0.10E+00    5.3     0.02949195       -49.3773813178 -1.66E-02
   445 Broy./Diag. 0.10E+00    5.3     0.02282824       -49.3582358121  1.91E-02
   446 Broy./Diag. 0.10E+00    5.2     0.02654499       -49.3829147624 -2.47E-02
   447 Broy./Diag. 0.10E+00    5.4     0.03101507       -49.3620449986  2.09E-02
   448 Broy./Diag. 0.10E+00    5.4     0.03707826       -49.3228449459  3.92E-02
   449 Broy./Diag. 0.10E+00    5.4     0.06105278       -49.2439406397  7.89E-02
   450 Broy./Diag. 0.10E+00    5.4     0.05113893       -49.1816942661  6.22E-02
   451 Broy./Diag. 0.10E+00    5.3     0.06625491       -49.1761585774  5.54E-03
   452 Broy./Diag. 0.10E+00    5.3     0.03467279       -49.1734164170  2.74E-03
   453 Broy./Diag. 0.10E+00    5.3     0.05168784       -49.1916342684 -1.82E-02
   454 Broy./Diag. 0.10E+00    5.3     0.10815844       -49.1843035394  7.33E-03
   455 Broy./Diag. 0.10E+00    5.4     0.09669914       -49.1655800006  1.87E-02
   456 Broy./Diag. 0.10E+00    5.3     0.06320207       -49.2045815992 -3.90E-02
   457 Broy./Diag. 0.10E+00    5.4     0.06503688       -49.1938605213  1.07E-02
   458 Broy./Diag. 0.10E+00    5.4     0.03380255       -49.1654528496  2.84E-02
   459 Broy./Diag. 0.10E+00    5.3     0.02509184       -49.1691736800 -3.72E-03
   460 Broy./Diag. 0.10E+00    5.3     0.03874215       -49.2071764360 -3.80E-02
   461 Broy./Diag. 0.10E+00    5.3     0.07402994       -49.2320582242 -2.49E-02
   462 Broy./Diag. 0.10E+00    5.4     0.05788053       -49.2450868562 -1.30E-02
   463 Broy./Diag. 0.10E+00    5.3     0.02417836       -49.2420734831  3.01E-03
   464 Broy./Diag. 0.10E+00    5.3     0.02281512       -49.2422888988 -2.15E-04
   465 Broy./Diag. 0.10E+00    5.4     0.01659492       -49.2455217635 -3.23E-03
   466 Broy./Diag. 0.10E+00    5.3     0.02426730       -49.2517987834 -6.28E-03
   467 Broy./Diag. 0.10E+00    5.3     0.03419808       -49.2489132433  2.89E-03
   468 Broy./Diag. 0.10E+00    5.3     0.02969938       -49.2425375223  6.38E-03
   469 Broy./Diag. 0.10E+00    5.3     0.03928963       -49.2338100271  8.73E-03
   470 Broy./Diag. 0.10E+00    5.3     0.03345458       -49.2214639042  1.23E-02
   471 Broy./Diag. 0.10E+00    5.4     0.03267922       -49.2102897851  1.12E-02
   472 Broy./Diag. 0.10E+00    5.4     0.03965041       -49.1989601875  1.13E-02
   473 Broy./Diag. 0.10E+00    5.3     0.04388188       -49.1893400789  9.62E-03
   474 Broy./Diag. 0.10E+00    5.3     0.04609738       -49.1773012425  1.20E-02
   475 Broy./Diag. 0.10E+00    5.3     0.04416929       -49.1711895184  6.11E-03
   476 Broy./Diag. 0.10E+00    5.3     0.03780628       -49.1654531618  5.74E-03
   477 Broy./Diag. 0.10E+00    5.3     0.04554684       -49.1575604355  7.89E-03
   478 Broy./Diag. 0.10E+00    5.3     0.03923283       -49.1544986508  3.06E-03
   479 Broy./Diag. 0.10E+00    5.3     0.06457642       -49.1394166087  1.51E-02
   480 Broy./Diag. 0.10E+00    5.3     0.06908986       -49.1464011783 -6.98E-03
   481 Broy./Diag. 0.10E+00    5.3     0.06309214       -49.1414370703  4.96E-03
   482 Broy./Diag. 0.10E+00    5.5     0.05833985       -49.1310068167  1.04E-02
   483 Broy./Diag. 0.10E+00    5.3     0.06646635       -49.0995382131  3.15E-02
   484 Broy./Diag. 0.10E+00    5.3     0.05152112       -49.0779757511  2.16E-02
   485 Broy./Diag. 0.10E+00    5.3     0.09579994       -49.0958906808 -1.79E-02
   486 Broy./Diag. 0.10E+00    5.3     0.04823152       -49.1553561360 -5.95E-02
   487 Broy./Diag. 0.10E+00    5.5     0.13538500       -49.1555100539 -1.54E-04
   488 Broy./Diag. 0.10E+00    5.3     0.03333796       -49.0877710352  6.77E-02
   489 Broy./Diag. 0.10E+00    5.4     0.08039192       -49.1180648301 -3.03E-02
   490 Broy./Diag. 0.10E+00    5.3     0.05762985       -49.1572988316 -3.92E-02
   491 Broy./Diag. 0.10E+00    5.3     0.04353035       -49.1571744549  1.24E-04
   492 Broy./Diag. 0.10E+00    5.3     0.03802058       -49.1767384727 -1.96E-02
   493 Broy./Diag. 0.10E+00    5.4     0.09603293       -49.2235417913 -4.68E-02
   494 Broy./Diag. 0.10E+00    5.3     0.14876768       -49.2318204992 -8.28E-03
   495 Broy./Diag. 0.10E+00    5.3     0.14233162       -49.1741666365  5.77E-02
   496 Broy./Diag. 0.10E+00    5.3     0.12358532       -49.2224728000 -4.83E-02
   497 Broy./Diag. 0.10E+00    5.3     0.09759545       -49.2048117160  1.77E-02
   498 Broy./Diag. 0.10E+00    5.3     0.02279704       -49.1799382469  2.49E-02
   499 Broy./Diag. 0.10E+00    5.3     0.03028911       -49.1706916888  9.25E-03
   500 Broy./Diag. 0.10E+00    5.3     0.01456352       -49.1533851441  1.73E-02

  Leaving inner SCF loop after reaching   500 steps.


  Electronic density on regular grids:         -7.1218375140        2.8781624860
  Core density on regular grids:               10.0000000000        0.0000000000
  Hard and soft densities (Lebedev):          -13.7253903203      -10.8501152209
  Total Rho_soft + Rho1_hard - Rho1_soft       -9.9971126133
  Total charge density (r-space):               0.0028873867
  Total Rho_soft + Rho0_soft (g-space):         0.0028873260

  Overlap energy of the core charge distribution:               0.00000845868521
  Self energy of the core charge distribution:                -32.50467561761386
  Core Hamiltonian energy:                                    -13.27646985223237
  Hartree energy:                                              11.40341595146102
  Exchange-correlation energy:                                 -2.06230303163409
  Hartree-Fock Exchange energy:                                -1.89903175652164

  GAPW| Exc from hard and soft atomic rho1:                    -3.87156310836805
  GAPW| local Eh = 1 center integrals:                         -6.94276618790114

  Total energy:                                               -49.15338514412492

 *******************************************************************************
 *   ___                                                                       *
 *  /   \                                                                      *
 * [ABORT]                                                                     *
 *  \___/     SCF run NOT converged. To continue the calculation regardless,   *
 *    |             please set the keyword IGNORE_CONVERGENCE_FAILURE.         *
 *  O/|                                                                        *
 * /| |                                                                        *
 * / \                                                            qs_scf.F:611 *
 *******************************************************************************


 ===== Routine Calling Stack ===== 

            3 scf_env_do_scf
            2 qs_energies
            1 CP2K

 *******************************************************************************
 *   ___                                                                       *
 *  /   \                                                                      *
 * [ABORT]                                                                     *
 *  \___/     SCF run NOT converged. To continue the calculation regardless,   *
 *    |             please set the keyword IGNORE_CONVERGENCE_FAILURE.         *
 *  O/|                                                                        *
 * /| |                                                                        *
 * / \                                                            qs_scf.F:611 *
 *******************************************************************************


 ===== Routine Calling Stack ===== 

            3 scf_env_do_scf
            2 qs_energies
            1 CP2K

 *******************************************************************************
 *   ___                                                                       *
 *  /   \                                                                      *
 * [ABORT]                                                                     *
 *  \___/     SCF run NOT converged. To continue the calculation regardless,   *
 *    |             please set the keyword IGNORE_CONVERGENCE_FAILURE.         *
 *  O/|                                                                        *
 * /| |                                                                        *
 * / \                                                            qs_scf.F:611 *
 *******************************************************************************


 ===== Routine Calling Stack ===== 

            3 scf_env_do_scf
            2 qs_energies
            1 CP2K

 *******************************************************************************
 *   ___                                                                       *
 *  /   \                                                                      *
 * [ABORT]                                                                     *
 *  \___/     SCF run NOT converged. To continue the calculation regardless,   *
 *    |             please set the keyword IGNORE_CONVERGENCE_FAILURE.         *
 *  O/|                                                                        *
 * /| |                                                                        *
 * / \                                                            qs_scf.F:611 *
 *******************************************************************************


 ===== Routine Calling Stack ===== 

            3 scf_env_do_scf
            2 qs_energies
            1 CP2K

 *******************************************************************************
 *   ___                                                                       *
 *  /   \                                                                      *
 * [ABORT]                                                                     *
 *  \___/     SCF run NOT converged. To continue the calculation regardless,   *
 *    |             please set the keyword IGNORE_CONVERGENCE_FAILURE.         *
 *  O/|                                                                        *
 * /| |                                                                        *
 * / \                                                            qs_scf.F:611 *
 *******************************************************************************


 ===== Routine Calling Stack ===== 

            3 scf_env_do_scf
            2 qs_energies
            1 CP2K

 *******************************************************************************
 *   ___                                                                       *
 *  /   \                                                                      *
 * [ABORT]                                                                     *
 *  \___/     SCF run NOT converged. To continue the calculation regardless,   *
 *    |             please set the keyword IGNORE_CONVERGENCE_FAILURE.         *
 *  O/|                                                                        *
 * /| |                                                                        *
 * / \                                                            qs_scf.F:611 *
 *******************************************************************************


 ===== Routine Calling Stack ===== 

            3 scf_env_do_scf
            2 qs_energies
            1 CP2K

 *******************************************************************************
 *   ___                                                                       *
 *  /   \                                                                      *
 * [ABORT]                                                                     *
 *  \___/     SCF run NOT converged. To continue the calculation regardless,   *
 *    |             please set the keyword IGNORE_CONVERGENCE_FAILURE.         *
 *  O/|                                                                        *
 * /| |                                                                        *
 * / \                                                            qs_scf.F:611 *
 *******************************************************************************


 ===== Routine Calling Stack ===== 

            3 scf_env_do_scf
            2 qs_energies
            1 CP2K

 *******************************************************************************
 *   ___                                                                       *
 *  /   \                                                                      *
 * [ABORT]                                                                     *
 *  \___/     SCF run NOT converged. To continue the calculation regardless,   *
 *    |             please set the keyword IGNORE_CONVERGENCE_FAILURE.         *
 *  O/|                                                                        *
 * /| |                                                                        *
 * / \                                                            qs_scf.F:611 *
 *******************************************************************************


 ===== Routine Calling Stack ===== 

            3 scf_env_do_scf
            2 qs_energies
            1 CP2K

 *******************************************************************************
 *   ___                                                                       *
 *  /   \                                                                      *
 * [ABORT]                                                                     *
 *  \___/     SCF run NOT converged. To continue the calculation regardless,   *
 *    |             please set the keyword IGNORE_CONVERGENCE_FAILURE.         *
 *  O/|                                                                        *
 * /| |                                                                        *
 * / \                                                            qs_scf.F:611 *
 *******************************************************************************


 ===== Routine Calling Stack ===== 

            3 scf_env_do_scf
            2 qs_energies
            1 CP2K

 *******************************************************************************
 *   ___                                                                       *
 *  /   \                                                                      *
 * [ABORT]                                                                     *
 *  \___/     SCF run NOT converged. To continue the calculation regardless,   *
 *    |             please set the keyword IGNORE_CONVERGENCE_FAILURE.         *
 *  O/|                                                                        *
 * /| |                                                                        *
 * / \                                                            qs_scf.F:611 *
 *******************************************************************************


 ===== Routine Calling Stack ===== 

            3 scf_env_do_scf
            2 qs_energies
            1 CP2K

 *******************************************************************************
 *   ___                                                                       *
 *  /   \                                                                      *
 * [ABORT]                                                                     *
 *  \___/     SCF run NOT converged. To continue the calculation regardless,   *
 *    |             please set the keyword IGNORE_CONVERGENCE_FAILURE.         *
 *  O/|                                                                        *
 * /| |                                                                        *
 * / \                                                            qs_scf.F:611 *
 *******************************************************************************


 ===== Routine Calling Stack ===== 

            3 scf_env_do_scf
            2 qs_energies
            1 CP2K

 *******************************************************************************
 *   ___                                                                       *
 *  /   \                                                                      *
 * [ABORT]                                                                     *
 *  \___/     SCF run NOT converged. To continue the calculation regardless,   *
 *    |             please set the keyword IGNORE_CONVERGENCE_FAILURE.         *
 *  O/|                                                                        *
 * /| |                                                                        *
 * / \                                                            qs_scf.F:611 *
 *******************************************************************************


 ===== Routine Calling Stack ===== 

            3 scf_env_do_scf
            2 qs_energies
            1 CP2K

 *******************************************************************************
 *   ___                                                                       *
 *  /   \                                                                      *
 * [ABORT]                                                                     *
 *  \___/     SCF run NOT converged. To continue the calculation regardless,   *
 *    |             please set the keyword IGNORE_CONVERGENCE_FAILURE.         *
 *  O/|                                                                        *
 * /| |                                                                        *
 * / \                                                            qs_scf.F:611 *
 *******************************************************************************


 ===== Routine Calling Stack ===== 

            3 scf_env_do_scf
            2 qs_energies
            1 CP2K
