 DBCSR| CPU Multiplication driver                                           BLAS (U)
 DBCSR| Multrec recursion limit                                              512 (U)
 DBCSR| Multiplication stack size                                           1000 (D)
 DBCSR| Maximum elements for images                                    UNLIMITED (U)
 DBCSR| Multiplicative factor virtual images                                   1 (U)
 DBCSR| Use multiplication densification                                       T (D)
 DBCSR| Multiplication size stacks                                             3 (U)
 DBCSR| Use memory pool for CPU allocation                                     F (U)
 DBCSR| Number of 3D layers                                               SINGLE (U)
 DBCSR| Use MPI memory allocation                                              F (U)
 DBCSR| Use RMA algorithm                                                      F (U)
 DBCSR| Use Communication thread                                               T (U)
 DBCSR| Communication thread load                                             75 (D)
 DBCSR| MPI: My process id                                                     0
 DBCSR| MPI: Number of processes                                              24
 DBCSR| OMP: Current number of threads                                         4
 DBCSR| OMP: Max number of threads                                             4
 DBCSR| Split modifier for TAS multiplication algorithm                  1.0E+00 (U)


  **** **** ******  **  PROGRAM STARTED AT               2025-03-04 06:23:07.184
 ***** ** ***  *** **   PROGRAM STARTED ON                          i02r03c04s10
 **    ****   ******    PROGRAM STARTED BY                               di38fab
 ***** **    ** ** **   PROGRAM PROCESS ID                               1072796
  **** **  *******  **  PROGRAM STARTED IN /hppfs/scratch/04/di38fab/05_MOL/W4-1
                                           1+ALK/b2/SZV

 CP2K| version string:                 CP2K version 2025.1 (Development Version)
 CP2K| source code revision number:                                  git:47877ba
 CP2K| cp2kflags: omp libint fftw3 libxc parallel scalapack max_contr=4         
 CP2K| is freely available from                            https://www.cp2k.org/
 CP2K| Program compiled at                          Thu Feb 20 16:00:34 CET 2025
 CP2K| Program compiled on                                               login04
 CP2K| Program compiled for                                        Supermuc-foss
 CP2K| Data directory path          /hppfs/work/pn36zo/di38fab/newcp2k/cp2k/data
 CP2K| Input file name                                                    GW.inp

 GLOBAL| Force Environment number                                              1
 GLOBAL| Basis set file name            /hppfs/scratch/04/di38fab/04_TMD/BASIS_A
 GLOBAL| Potential file name            /hppfs/work/pn36zo/di38fab/cp2k/data/ALL
 GLOBAL| MM Potential file name                                     MM_POTENTIAL
 GLOBAL| Coordinate file name                                      __STD_INPUT__
 GLOBAL| Method name                                                        CP2K
 GLOBAL| Project name                                                       MoS2
 GLOBAL| Run type                                                         ENERGY
 GLOBAL| FFT library                                                       FFTW3
 GLOBAL| Diagonalization library                                       ScaLAPACK
 GLOBAL| DGEMM library                                                      BLAS
 GLOBAL| Orthonormality check for eigenvectors                          DISABLED
 GLOBAL| Matrix multiplication library                                 ScaLAPACK
 GLOBAL| All-to-all communication in single precision                          F
 GLOBAL| FFTs using library dependent lengths                                  F
 GLOBAL| Grid backend                                                       AUTO
 GLOBAL| Global print level                                               MEDIUM
 GLOBAL| MPI I/O enabled                                                       T
 GLOBAL| Total number of message passing processes                            24
 GLOBAL| Number of threads for this process                                    4
 GLOBAL| This output is from process                                           0
 GLOBAL| OpenMP stack size per thread (OMP_STACKSIZE)                    default
 GLOBAL| CPU model name             Intel(R) Xeon(R) Platinum 8174 CPU @ 3.10GHz

 MEMORY| system memory details [Kb]
 MEMORY|                        rank 0           min           max       average
 MEMORY| MemTotal             98436660      98436660      98436664      98436662
 MEMORY| MemFree              83969228      83742380      83969228      83855804
 MEMORY| Buffers                     0             0             0             0
 MEMORY| Cached                2463092       2453092       2463092       2458092
 MEMORY| Slab                  1247396       1245524       1247396       1246460
 MEMORY| SReclaimable           269236        259784        269236        264510
 MEMORY| MemLikelyFree        86701556      86455256      86701556      86578406


 *** Fundamental physical constants (SI units) ***

 *** Literature: B. J. Mohr and B. N. Taylor,
 ***             CODATA recommended values of the fundamental physical
 ***             constants: 2006, Web Version 5.1
 ***             http://physics.nist.gov/constants

 Speed of light in vacuum [m/s]                             2.99792458000000E+08
 Magnetic constant or permeability of vacuum [N/A**2]       1.25663706143592E-06
 Electric constant or permittivity of vacuum [F/m]          8.85418781762039E-12
 Planck constant (h) [J*s]                                  6.62606896000000E-34
 Planck constant (h-bar) [J*s]                              1.05457162825177E-34
 Elementary charge [C]                                      1.60217648700000E-19
 Electron mass [kg]                                         9.10938215000000E-31
 Electron g factor [ ]                                     -2.00231930436220E+00
 Proton mass [kg]                                           1.67262163700000E-27
 Fine-structure constant                                    7.29735253760000E-03
 Rydberg constant [1/m]                                     1.09737315685270E+07
 Avogadro constant [1/mol]                                  6.02214179000000E+23
 Boltzmann constant [J/K]                                   1.38065040000000E-23
 Atomic mass unit [kg]                                      1.66053878200000E-27
 Bohr radius [m]                                            5.29177208590000E-11

 *** Conversion factors ***

 [u] -> [a.u.]                                              1.82288848426455E+03
 [Angstrom] -> [Bohr] = [a.u.]                              1.88972613288564E+00
 [a.u.] = [Bohr] -> [Angstrom]                              5.29177208590000E-01
 [a.u.] -> [s]                                              2.41888432650478E-17
 [a.u.] -> [fs]                                             2.41888432650478E-02
 [a.u.] -> [J]                                              4.35974393937059E-18
 [a.u.] -> [N]                                              8.23872205491840E-08
 [a.u.] -> [K]                                              3.15774647902944E+05
 [a.u.] -> [kJ/mol]                                         2.62549961709828E+03
 [a.u.] -> [kcal/mol]                                       6.27509468713739E+02
 [a.u.] -> [Pa]                                             2.94210107994716E+13
 [a.u.] -> [bar]                                            2.94210107994716E+08
 [a.u.] -> [atm]                                            2.90362800883016E+08
 [a.u.] -> [eV]                                             2.72113838565563E+01
 [a.u.] -> [Hz]                                             6.57968392072181E+15
 [a.u.] -> [1/cm] (wave numbers)                            2.19474631370540E+05
 [a.u./Bohr**2] -> [1/cm]                                   5.14048714338585E+03
 

 CELL_TOP| Volume [angstrom^3]:                                     27000.000000
 CELL_TOP| Vector a [angstrom    30.000     0.000     0.000   |a| =    30.000000
 CELL_TOP| Vector b [angstrom     0.000    30.000     0.000   |b| =    30.000000
 CELL_TOP| Vector c [angstrom     0.000     0.000    30.000   |c| =    30.000000
 CELL_TOP| Angle (b,c), alpha [degree]:                                90.000000
 CELL_TOP| Angle (a,c), beta  [degree]:                                90.000000
 CELL_TOP| Angle (a,b), gamma [degree]:                                90.000000
 CELL_TOP| Numerically orthorhombic:                                         YES
 CELL_TOP| Periodicity                                                      NONE

 GENERATE|  Preliminary Number of Bonds generated:                             0
 GENERATE|  Achieved consistency in connectivity generation.

 CELL| Volume [angstrom^3]:                                         27000.000000
 CELL| Vector a [angstrom]:      30.000     0.000     0.000   |a| =    30.000000
 CELL| Vector b [angstrom]:       0.000    30.000     0.000   |b| =    30.000000
 CELL| Vector c [angstrom]:       0.000     0.000    30.000   |c| =    30.000000
 CELL| Angle (b,c), alpha [degree]:                                    90.000000
 CELL| Angle (a,c), beta  [degree]:                                    90.000000
 CELL| Angle (a,b), gamma [degree]:                                    90.000000
 CELL| Numerically orthorhombic:                                             YES
 CELL| Periodicity                                                          NONE

 CELL_REF| Volume [angstrom^3]:                                     27000.000000
 CELL_REF| Vector a [angstrom    30.000     0.000     0.000   |a| =    30.000000
 CELL_REF| Vector b [angstrom     0.000    30.000     0.000   |b| =    30.000000
 CELL_REF| Vector c [angstrom     0.000     0.000    30.000   |c| =    30.000000
 CELL_REF| Angle (b,c), alpha [degree]:                                90.000000
 CELL_REF| Angle (a,c), beta  [degree]:                                90.000000
 CELL_REF| Angle (a,b), gamma [degree]:                                90.000000
 CELL_REF| Numerically orthorhombic:                                         YES
 CELL_REF| Periodicity                                                      NONE

 *******************************************************************************
 *******************************************************************************
 **                                                                           **
 **     #####                         ##              ##                      **
 **    ##   ##            ##          ##              ##                      **
 **   ##     ##                       ##            ######                    **
 **   ##     ##  ##   ##  ##   #####  ##  ##   ####   ##    #####    #####    **
 **   ##     ##  ##   ##  ##  ##      ## ##   ##      ##   ##   ##  ##   ##   **
 **   ##  ## ##  ##   ##  ##  ##      ####     ###    ##   ######   ######    **
 **    ##  ###   ##   ##  ##  ##      ## ##      ##   ##   ##       ##        **
 **     #######   #####   ##   #####  ##  ##  ####    ##    #####   ##        **
 **           ##                                                    ##        **
 **                                                                           **
 **                                                ... make the atoms dance   **
 **                                                                           **
 **            Copyright (C) by CP2K developers group (2000-2025)             **
 **                      J. Chem. Phys. 152, 194103 (2020)                    **
 **                                                                           **
 *******************************************************************************

 DFT| Spin restricted Kohn-Sham (RKS) calculation                            RKS
 DFT| Multiplicity                                                             1
 DFT| Number of spin states                                                    1
 DFT| Charge                                                                   0
 DFT| Self-interaction correction (SIC)                                       NO
 DFT| Cutoffs: density                                              1.000000E-10
 DFT|          gradient                                             1.000000E-10
 DFT|          tau                                                  1.000000E-10
 DFT|          cutoff_smoothing_range                               0.000000E+00
 DFT| XC density smoothing                                                  NONE
 DFT| XC derivatives                                                          PW

 FUNCTIONAL| PBE:
 FUNCTIONAL| J.P.Perdew, K.Burke, M.Ernzerhof, Phys. Rev. Letter, vol. 77, n 18,
 FUNCTIONAL|  pp. 3865-3868, (1996)sx=0.750sc=1.000{spin unpolarized}           


 QS| Method:                                                                GAPW
 QS| Density plane wave grid type                        NON-SPHERICAL FULLSPACE
 QS| Number of grid levels:                                                    4
 QS| Density cutoff [a.u.]:                                                250.0
 QS| Multi grid cutoff [a.u.]: 1) grid level                               250.0
 QS|                           2) grid level                                83.3
 QS|                           3) grid level                                27.8
 QS|                           4) grid level                                 9.3
 QS| Grid level progression factor:                                          3.0
 QS| Relative density cutoff [a.u.]:                                        50.0
 QS| Interaction thresholds: eps_pgf_orb:                                1.0E-12
 QS|                         eps_filter_matrix:                          0.0E+00
 QS|                         eps_core_charge:                            1.0E-14
 QS|                         eps_rho_gspace:                             1.0E-12
 QS|                         eps_rho_rspace:                             1.0E-12
 QS|                         eps_gvg_rspace:                             1.0E-06
 QS|                         eps_ppl:                                    1.0E-02
 QS|                         eps_ppnl:                                   1.0E-08
 QS| GAPW|      One center basis from orbital basis primitives
 QS| GAPW|                   eps_fit:                                    1.0E-04
 QS| GAPW|                   eps_iso:                                    1.0E-12
 QS| GAPW|                   eps_svd:                                    1.0E-08
 QS| GAPW|                   eps_cpc:                                    1.0E-12
 QS| GAPW|   atom-r-grid: quadrature:                                     GC_LOG
 QS| GAPW|      atom-s-grid:  max l :                                          4
 QS| GAPW|      max_l_rho0 :                                                   2


 ATOMIC KIND INFORMATION

  1. Atomic kind: B                                     Number of atoms:       2

     Orbital Basis Set                                         aug-SZV-MOLOPT-ae

       Number of orbital shell sets:                                           2
       Number of orbital shells:                                               6
       Number of primitive Cartesian functions:                               13
       Number of Cartesian basis functions:                                   15
       Number of spherical basis functions:                                   14
       Norm type:                                                              2

       Normalised Cartesian orbitals:

                        Set   Shell   Orbital            Exponent    Coefficient

                          1       1    1s                0.109280       0.032606
                                                         0.155613       0.000000
                                                         0.238409       0.144712
                                                         0.548949       0.113742
                                                         1.426820      -0.031435
                                                         4.590809      -0.105038
                                                        23.194561      -0.099829

                          1       2    2s                0.109280      -0.049098
                                                         0.155613      -0.119813
                                                         0.238409      -0.025283
                                                         0.548949       0.056653
                                                         1.426820       0.132404
                                                         4.590809       0.000000
                                                        23.194561       0.000000

                          1       3    2px               0.109280       0.009109
                                                         0.155613       0.000000
                                                         0.238409       0.101125
                                                         0.548949       0.281559
                                                         1.426820       0.386539
                                                         4.590809       0.360915
                                                        23.194561       0.272788
                          1       3    2py               0.109280       0.009109
                                                         0.155613       0.000000
                                                         0.238409       0.101125
                                                         0.548949       0.281559
                                                         1.426820       0.386539
                                                         4.590809       0.360915
                                                        23.194561       0.272788
                          1       3    2pz               0.109280       0.009109
                                                         0.155613       0.000000
                                                         0.238409       0.101125
                                                         0.548949       0.281559
                                                         1.426820       0.386539
                                                         4.590809       0.360915
                                                        23.194561       0.272788

                          1       4    3px               0.109280       0.062233
                                                         0.155613       0.035668
                                                         0.238409       0.015304
                                                         0.548949      -0.003054
                                                         1.426820       0.021875
                                                         4.590809       0.000000
                                                        23.194561       0.000000
                          1       4    3py               0.109280       0.062233
                                                         0.155613       0.035668
                                                         0.238409       0.015304
                                                         0.548949      -0.003054
                                                         1.426820       0.021875
                                                         4.590809       0.000000
                                                        23.194561       0.000000
                          1       4    3pz               0.109280       0.062233
                                                         0.155613       0.035668
                                                         0.238409       0.015304
                                                         0.548949      -0.003054
                                                         1.426820       0.021875
                                                         4.590809       0.000000
                                                        23.194561       0.000000

                          1       5    3dx2              0.109280       0.000986
                                                         0.155613       0.002022
                                                         0.238409       0.109458
                                                         0.548949       0.095099
                                                         1.426820       0.028232
                                                         4.590809       0.000000
                                                        23.194561       0.000000
                          1       5    3dxy              0.109280       0.001708
                                                         0.155613       0.003503
                                                         0.238409       0.189586
                                                         0.548949       0.164717
                                                         1.426820       0.048900
                                                         4.590809       0.000000
                                                        23.194561       0.000000
                          1       5    3dxz              0.109280       0.001708
                                                         0.155613       0.003503
                                                         0.238409       0.189586
                                                         0.548949       0.164717
                                                         1.426820       0.048900
                                                         4.590809       0.000000
                                                        23.194561       0.000000
                          1       5    3dy2              0.109280       0.000986
                                                         0.155613       0.002022
                                                         0.238409       0.109458
                                                         0.548949       0.095099
                                                         1.426820       0.028232
                                                         4.590809       0.000000
                                                        23.194561       0.000000
                          1       5    3dyz              0.109280       0.001708
                                                         0.155613       0.003503
                                                         0.238409       0.189586
                                                         0.548949       0.164717
                                                         1.426820       0.048900
                                                         4.590809       0.000000
                                                        23.194561       0.000000
                          1       5    3dz2              0.109280       0.000986
                                                         0.155613       0.002022
                                                         0.238409       0.109458
                                                         0.548949       0.095099
                                                         1.426820       0.028232
                                                         4.590809       0.000000
                                                        23.194561       0.000000

                          2       1    1s              506.011837       0.696781
                                                        92.776716       1.051665
                                                        25.955582       1.381280
                                                         8.916443       1.362748
                                                         3.462516       0.753460
                                                         1.426055       0.121219

     RI Auxiliary Basis Set             RI_aug-SZV-MOLOPT-ae_N_RI_032_s_p_d_f_g_

       Number of orbital shell sets:                                          12
       Number of orbital shells:                                              12
       Number of primitive Cartesian functions:                               12
       Number of Cartesian basis functions:                                   37
       Number of spherical basis functions:                                   32
       Norm type:                                                              2

       Normalised Cartesian orbitals:

                        Set   Shell   Orbital            Exponent    Coefficient

                          1       1    1s                0.209619       0.220792

                          2       1    7px               0.279173       0.289256
                          2       1    7py               0.279173       0.289256
                          2       1    7pz               0.279173       0.289256

                          3       1   10dx2              0.438607       0.389083
                          3       1   10dxy              0.438607       0.673912
                          3       1   10dxz              0.438607       0.673912
                          3       1   10dy2              0.438607       0.389083
                          3       1   10dyz              0.438607       0.673912
                          3       1   10dz2              0.438607       0.389083

                          4       1   12fx3              0.550449       0.384210
                          4       1   12fx2y             0.550449       0.859120
                          4       1   12fx2z             0.550449       0.859120
                          4       1   12fxy2             0.550449       0.859120
                          4       1   12fxyz             0.550449       1.488039
                          4       1   12fxz2             0.550449       0.859120
                          4       1   12fy3              0.550449       0.384210
                          4       1   12fy2z             0.550449       0.859120
                          4       1   12fyz2             0.550449       0.859120
                          4       1   12fz3              0.550449       0.384210

                          5       1    2s                0.618189       0.496879

                          6       1    8px               0.759703       1.010986
                          6       1    8py               0.759703       1.010986
                          6       1    8pz               0.759703       1.010986

                          7       1    3s                1.823121       1.118206

                          8       1   11dx2              2.272834       6.924734
                          8       1   11dxy              2.272834      11.993991
                          8       1   11dxz              2.272834      11.993991
                          8       1   11dy2              2.272834       6.924734
                          8       1   11dyz              2.272834      11.993991
                          8       1   11dz2              2.272834       6.924734

                          9       1    4s                5.376710       2.516504

                         10       1    9px               8.010416      19.209185
                         10       1    9py               8.010416      19.209185
                         10       1    9pz               8.010416      19.209185

                         11       1    5s               15.856825       5.663335

                         12       1    6s               46.764327      12.745184

       Atomic covalent radius [Angstrom]:                                  0.820

       Atomic van der Waals radius [Angstrom]:                             1.920

     The atoms of this atomic kind are PAW atoms (GAPW):
       Hard Gaussian function radius:                                      1.512
       Rho0 radius:                                                        1.512
       Maximum GTO radius used for PAW projector construction:            24.566

     GAPW Soft Basis Set                                  aug-SZV-MOLOPT-ae_soft

       Number of orbital shell sets:                                           2
       Number of orbital shells:                                               6
       Number of primitive Cartesian functions:                                7
       Number of Cartesian basis functions:                                   15
       Number of spherical basis functions:                                   14
       Norm type:                                                              2

       Normalised Cartesian orbitals:

                        Set   Shell   Orbital            Exponent    Coefficient

                          1       1    1s                0.109280       0.032606
                                                         0.155613       0.000000
                                                         0.238409       0.144712
                                                         0.548949       0.113742
                                                         1.426820      -0.031435

                          1       2    2s                0.109280      -0.049098
                                                         0.155613      -0.119813
                                                         0.238409      -0.025283
                                                         0.548949       0.056653
                                                         1.426820       0.132404

                          1       3    2px               0.109280       0.009109
                                                         0.155613       0.000000
                                                         0.238409       0.101125
                                                         0.548949       0.281559
                                                         1.426820       0.386539
                          1       3    2py               0.109280       0.009109
                                                         0.155613       0.000000
                                                         0.238409       0.101125
                                                         0.548949       0.281559
                                                         1.426820       0.386539
                          1       3    2pz               0.109280       0.009109
                                                         0.155613       0.000000
                                                         0.238409       0.101125
                                                         0.548949       0.281559
                                                         1.426820       0.386539

                          1       4    3px               0.109280       0.062233
                                                         0.155613       0.035668
                                                         0.238409       0.015304
                                                         0.548949      -0.003054
                                                         1.426820       0.021875
                          1       4    3py               0.109280       0.062233
                                                         0.155613       0.035668
                                                         0.238409       0.015304
                                                         0.548949      -0.003054
                                                         1.426820       0.021875
                          1       4    3pz               0.109280       0.062233
                                                         0.155613       0.035668
                                                         0.238409       0.015304
                                                         0.548949      -0.003054
                                                         1.426820       0.021875

                          1       5    3dx2              0.109280       0.000986
                                                         0.155613       0.002022
                                                         0.238409       0.109458
                                                         0.548949       0.095099
                                                         1.426820       0.028232
                          1       5    3dxy              0.109280       0.001708
                                                         0.155613       0.003503
                                                         0.238409       0.189586
                                                         0.548949       0.164717
                                                         1.426820       0.048900
                          1       5    3dxz              0.109280       0.001708
                                                         0.155613       0.003503
                                                         0.238409       0.189586
                                                         0.548949       0.164717
                                                         1.426820       0.048900
                          1       5    3dy2              0.109280       0.000986
                                                         0.155613       0.002022
                                                         0.238409       0.109458
                                                         0.548949       0.095099
                                                         1.426820       0.028232
                          1       5    3dyz              0.109280       0.001708
                                                         0.155613       0.003503
                                                         0.238409       0.189586
                                                         0.548949       0.164717
                                                         1.426820       0.048900
                          1       5    3dz2              0.109280       0.000986
                                                         0.155613       0.002022
                                                         0.238409       0.109458
                                                         0.548949       0.095099
                                                         1.426820       0.028232

                          2       1    1s                3.462516       0.753460
                                                         1.426055       0.121219

     AE Potential information for                                            ALL

       Description:                                       All-electron potential
                                          Krack, Parrinello, PCCP 2, 2105 (2000)

       Gaussian exponent of the core charge distribution:               2.655410
       Electronic configuration (s p d ...):                           4   1   0


 MOLECULE KIND INFORMATION


 All atoms are their own molecule, skipping detailed information


 TOTAL NUMBERS AND MAXIMUM NUMBERS

  Total number of            - Atomic kinds:                                   1
                             - Atoms:                                          2
                             - Shell sets:                                     4
                             - Shells:                                        12
                             - Primitive Cartesian functions:                 26
                             - Cartesian basis functions:                     30
                             - Spherical basis functions:                     28

  Maximum angular momentum of the orbital basis functions:                     2


 MODULE QUICKSTEP: ATOMIC COORDINATES IN ANGSTROM

   Atom Kind Element         X             Y             Z       Z(eff)     Mass
      1    1 B     5     15.793777     15.000000     15.000000   5.0000  10.8110
      2    1 B     5     14.206223     15.000000     15.000000   5.0000  10.8110



 SCF PARAMETERS         Density guess:                                    ATOMIC
                        --------------------------------------------------------
                        max_scf:                                             500
                        max_scf_history:                                       0
                        max_diis:                                              4
                        --------------------------------------------------------
                        eps_scf:                                        1.00E-06
                        eps_scf_history:                                0.00E+00
                        eps_diis:                                       1.00E-01
                        eps_eigval:                                     1.00E-05
                        --------------------------------------------------------
                        level_shift [a.u.]:                             0.000000
                        added MOs                                        23    0
                        --------------------------------------------------------
                        Mixing method:                            BROYDEN_MIXING
                                                charge density mixing in g-space
                        --------------------------------------------------------
                        No outer SCF

 PW_GRID| Information for grid number                                          1
 PW_GRID| Grid distributed over                                    24 processors
 PW_GRID| Real space group dimensions                                    24    1
 PW_GRID| the grid is blocked:                                                NO
 PW_GRID| Cutoff [a.u.]                                                    250.0
 PW_GRID| spherical cutoff:                                                   NO
 PW_GRID|   Bounds   1           -202     202                Points:         405
 PW_GRID|   Bounds   2           -202     202                Points:         405
 PW_GRID|   Bounds   3           -202     202                Points:         405
 PW_GRID| Volume element (a.u.^3)  0.2743E-02     Volume (a.u.^3)    182205.0337
 PW_GRID| Grid span                                                    FULLSPACE
 PW_GRID|   Distribution                         Average         Max         Min
 PW_GRID|   G-Vectors                          2767921.9     2768175     2767770
 PW_GRID|   G-Rays                                6834.4        6835        6834
 PW_GRID|   Real Space Points                  2767921.9     2788425     2624400

 PW_GRID| Information for grid number                                          2
 PW_GRID| Number of the reference grid                                         1
 PW_GRID| Grid distributed over                                    24 processors
 PW_GRID| Real space group dimensions                                    24    1
 PW_GRID| the grid is blocked:                                                NO
 PW_GRID| Cutoff [a.u.]                                                     83.3
 PW_GRID| spherical cutoff:                                                   NO
 PW_GRID|   Bounds   1           -120     119                Points:         240
 PW_GRID|   Bounds   2           -120     119                Points:         240
 PW_GRID|   Bounds   3           -120     119                Points:         240
 PW_GRID| Volume element (a.u.^3)  0.1318E-01     Volume (a.u.^3)    182205.0337
 PW_GRID| Grid span                                                    FULLSPACE
 PW_GRID|   Distribution                         Average         Max         Min
 PW_GRID|   G-Vectors                           576000.0      576240      575760
 PW_GRID|   G-Rays                                2400.0        2401        2399
 PW_GRID|   Real Space Points                   576000.0      576000      576000

 PW_GRID| Information for grid number                                          3
 PW_GRID| Number of the reference grid                                         1
 PW_GRID| Grid distributed over                                    24 processors
 PW_GRID| Real space group dimensions                                    24    1
 PW_GRID| the grid is blocked:                                                NO
 PW_GRID| Cutoff [a.u.]                                                     27.8
 PW_GRID| spherical cutoff:                                                   NO
 PW_GRID|   Bounds   1            -67      67                Points:         135
 PW_GRID|   Bounds   2            -67      67                Points:         135
 PW_GRID|   Bounds   3            -67      67                Points:         135
 PW_GRID| Volume element (a.u.^3)  0.7406E-01     Volume (a.u.^3)    182205.0337
 PW_GRID| Grid span                                                    FULLSPACE
 PW_GRID|   Distribution                         Average         Max         Min
 PW_GRID|   G-Vectors                           102515.6      102735      102330
 PW_GRID|   G-Rays                                 759.4         761         758
 PW_GRID|   Real Space Points                   102515.6      109350       91125

 PW_GRID| Information for grid number                                          4
 PW_GRID| Number of the reference grid                                         1
 PW_GRID| Grid distributed over                                    24 processors
 PW_GRID| Real space group dimensions                                    24    1
 PW_GRID| the grid is blocked:                                                NO
 PW_GRID| Cutoff [a.u.]                                                      9.3
 PW_GRID| spherical cutoff:                                                   NO
 PW_GRID|   Bounds   1            -40      39                Points:          80
 PW_GRID|   Bounds   2            -40      39                Points:          80
 PW_GRID|   Bounds   3            -40      39                Points:          80
 PW_GRID| Volume element (a.u.^3)  0.3559         Volume (a.u.^3)    182205.0337
 PW_GRID| Grid span                                                    FULLSPACE
 PW_GRID|   Distribution                         Average         Max         Min
 PW_GRID|   G-Vectors                            21333.3       21360       21280
 PW_GRID|   G-Rays                                 266.7         267         266
 PW_GRID|   Real Space Points                    21333.3       25600       19200

 POISSON| Solver                                                         WAVELET
 POISSON| Wavelet| Scaling function                                           40
 POISSON| Periodicity                                                       NONE

 RS_GRID| Information for grid number                                          1
 RS_GRID|   Bounds   1           -202     202                Points:         405
 RS_GRID|   Bounds   2           -202     202                Points:         405
 RS_GRID|   Bounds   3           -202     202                Points:         405
 RS_GRID| Real space distribution over                                  4 groups
 RS_GRID| Real space distribution along direction                              2
 RS_GRID| Border size                                                         32
 RS_GRID| Real space distribution over                                  6 groups
 RS_GRID| Real space distribution along direction                              3
 RS_GRID| Border size                                                         32
 RS_GRID|   Distribution                         Average         Max         Min
 RS_GRID|   Planes                                 165.2         166         165
 RS_GRID|   Distribution                         Average         Max         Min
 RS_GRID|   Planes                                 131.5         132         131

 RS_GRID| Information for grid number                                          2
 RS_GRID|   Bounds   1           -120     119                Points:         240
 RS_GRID|   Bounds   2           -120     119                Points:         240
 RS_GRID|   Bounds   3           -120     119                Points:         240
 RS_GRID| Real space distribution over                                  4 groups
 RS_GRID| Real space distribution along direction                              2
 RS_GRID| Border size                                                         34
 RS_GRID| Real space distribution over                                  6 groups
 RS_GRID| Real space distribution along direction                              3
 RS_GRID| Border size                                                         34
 RS_GRID|   Distribution                         Average         Max         Min
 RS_GRID|   Planes                                 128.0         128         128
 RS_GRID|   Distribution                         Average         Max         Min
 RS_GRID|   Planes                                 108.0         108         108

 RS_GRID| Information for grid number                                          3
 RS_GRID|   Bounds   1            -67      67                Points:         135
 RS_GRID|   Bounds   2            -67      67                Points:         135
 RS_GRID|   Bounds   3            -67      67                Points:         135
 RS_GRID| Real space fully replicated
 RS_GRID| Group size                                                           1

 RS_GRID| Information for grid number                                          4
 RS_GRID|   Bounds   1            -40      39                Points:          80
 RS_GRID|   Bounds   2            -40      39                Points:          80
 RS_GRID|   Bounds   3            -40      39                Points:          80
 RS_GRID| Real space fully replicated
 RS_GRID| Group size                                                           1

  HFX_INFO| Replica ID:                                                        1
  HFX_INFO| FRACTION:                                               0.2500000000
  HFX_INFO| Interaction Potential:                                       COULOMB
  HFX_INFO| EPS_SCHWARZ:                                                 1.0E-10
  HFX_INFO| EPS_SCHWARZ_FORCES                                           1.0E-08
  HFX_INFO| EPS_STORAGE_SCALING:                                         1.0E+00
  HFX_INFO| NBINS:                                                            64
  HFX_INFO| BLOCK_SIZE:                                                        1
  HFX_INFO| Number of periodic shells considered:                           NONE
  HFX_INFO| Number of periodic cells considered:                            NONE

 
 RI-RPA| using GPW style
 

 OVERLAP MATRIX CONDITION NUMBER
 1-Norm Condition Number (Estimate)
   CN : |A|*|A^-1|:  4.590E+000 *  1.332E+002   = 6.114E+002  Log(1-CN):  2.7863
 1-Norm and 2-Norm Condition Numbers using Diagonalization
   CN : |A|*|A^-1|:  4.590E+000 *  1.332E+002   = 6.114E+002  Log(1-CN):  2.7863
   CN : max/min ev:  3.636E+000 /  1.176E-002   = 3.092E+002  Log(2-CN):  2.4903

 Number of electrons:                                                         10
 Number of occupied orbitals:                                                  5
 Number of molecular orbitals:                                                28

 Number of orbital functions:                                                 28
 Number of independent orbital functions:                                     28

 Extrapolation method: initial_guess

 Atomic guess: The first density matrix is obtained in terms of atomic orbitals
               and electronic configurations assigned to each atomic kind

 Guess for atomic kind: B

 Electronic structure
    Total number of core electrons                                          0.00
    Total number of valence electrons                                       5.00
    Total number of electrons                                               5.00
    Multiplicity                                                   not specified
    S      2.00  2.00
    P      1.00


 *******************************************************************************
                  Iteration          Convergence                     Energy [au]
 *******************************************************************************
                          1        0.612489E-01                 -24.304439508901
                          2        0.220484E-01                 -24.305945213911
                          3        0.367076E-03                 -24.306247196960
                          4        0.456899E-05                 -24.306247340970
                          5        0.241868E-07                 -24.306247340986

 Energy components [Hartree]           Total Energy ::          -24.306247340986
                                        Band Energy ::          -13.825803348850
                                     Kinetic Energy ::           23.970530113188
                                   Potential Energy ::          -48.276777454174
                                      Virial (-V/T) ::            2.014005415242
                                        Core Energy ::          -32.361048727638
                                          XC Energy ::           -3.546375173816
                                     Coulomb Energy ::           11.601176560468

 Orbital energies  State     L     Occupation   Energy[a.u.]          Energy[eV]

                       1     0          2.000      -6.531739         -177.737651
                       2     0          2.000      -0.324835           -8.839199

                       1     1          1.000      -0.112657           -3.065543


 Total Electron Density at R=0:                                        58.671969
 Re-scaling the density matrix to get the right number of electrons
                  # Electrons              Trace(P)               Scaling factor
                           10                10.000                        1.000


 SCF WAVEFUNCTION OPTIMIZATION

  Step     Update method      Time    Convergence         Total energy    Change
  ------------------------------------------------------------------------------

  HFX_MEM_INFO| Est. max. program size before HFX [MiB]:                    2125
  HFX_MEM_INFO| Number of cart. primitive ERI's calculated:            188947463
  HFX_MEM_INFO| Number of sph. ERI's calculated:                          230496
  HFX_MEM_INFO| Number of sph. ERI's stored in-core:                      230496
  HFX_MEM_INFO| Number of sph. ERI's stored on disk:                           0
  HFX_MEM_INFO| Number of sph. ERI's calculated on the fly:                    0
  HFX_MEM_INFO| Total memory consumption ERI's RAM [MiB]:                      2
  HFX_MEM_INFO| Whereof max-vals [MiB]:                                        1
  HFX_MEM_INFO| Total compression factor ERI's RAM:                         1.11
  HFX_MEM_INFO| Total memory consumption ERI's disk [MiB]:                     0
  HFX_MEM_INFO| Total compression factor ERI's disk:                        0.00
  HFX_MEM_INFO| Size of density/Fock matrix [MiB]:                             0
  HFX_MEM_INFO| Size of buffers [MiB]:                                         0
  HFX_MEM_INFO| Est. max. program size after HFX  [MiB]:                    2635

     1 NoMix/Diag. 0.10E+00    8.2     0.34372936       -49.3968786203 -4.94E+01
     2 Broy./Diag. 0.10E+00    4.7     0.03842337       -49.2120608349  1.85E-01
     3 Broy./Diag. 0.10E+00    4.9     0.00885436       -49.1549300174  5.71E-02
     4 Broy./Diag. 0.10E+00    4.7     0.02732073       -49.1349865430  1.99E-02
     5 Broy./Diag. 0.10E+00    4.8     0.00525254       -49.1938506198 -5.89E-02
     6 Broy./Diag. 0.10E+00    4.9     0.00522711       -49.2155818002 -2.17E-02
     7 Broy./Diag. 0.10E+00    5.0     0.00168877       -49.2353940092 -1.98E-02
     8 Broy./Diag. 0.10E+00    5.1     0.00049364       -49.2390722991 -3.68E-03
     9 Broy./Diag. 0.10E+00    5.3     0.00225123       -49.2361114845  2.96E-03
    10 Broy./Diag. 0.10E+00    5.3     0.00069724       -49.2334325812  2.68E-03
    11 Broy./Diag. 0.10E+00    5.3     0.00030470       -49.2294589221  3.97E-03
    12 Broy./Diag. 0.10E+00    5.5     0.00044405       -49.2292756742  1.83E-04
    13 Broy./Diag. 0.10E+00    5.6     0.00009029       -49.2299841394 -7.08E-04
    14 Broy./Diag. 0.10E+00    5.4     0.00053169       -49.2297861590  1.98E-04
    15 Broy./Diag. 0.10E+00    5.5     0.00021404       -49.2307852057 -9.99E-04
    16 Broy./Diag. 0.10E+00    5.5     0.00018307       -49.2313534938 -5.68E-04
    17 Broy./Diag. 0.10E+00    5.5     0.00009619       -49.2313040180  4.95E-05
    18 Broy./Diag. 0.10E+00    5.5     0.00002688       -49.2310762146  2.28E-04
    19 Broy./Diag. 0.10E+00    5.3     0.00007804       -49.2304124227  6.64E-04
    20 Broy./Diag. 0.10E+00    5.3     0.00003950       -49.2301936514  2.19E-04
    21 Broy./Diag. 0.10E+00    5.3     0.00001852       -49.2300252269  1.68E-04
    22 Broy./Diag. 0.10E+00    5.4     0.00008072       -49.2298867921  1.38E-04
    23 Broy./Diag. 0.10E+00    5.4     0.00003357       -49.2299118188 -2.50E-05
    24 Broy./Diag. 0.10E+00    5.5     0.00001646       -49.2299507458 -3.89E-05
    25 Broy./Diag. 0.10E+00    5.4     0.00007081       -49.2300693118 -1.19E-04
    26 Broy./Diag. 0.10E+00    5.4     0.00005693       -49.2301011813 -3.19E-05
    27 Broy./Diag. 0.10E+00    5.6     0.00004664       -49.2301118323 -1.07E-05
    28 Broy./Diag. 0.10E+00    5.5     0.00005219       -49.2301309694 -1.91E-05
    29 Broy./Diag. 0.10E+00    5.5     0.00004544       -49.2301507089 -1.97E-05
    30 Broy./Diag. 0.10E+00    5.5     0.00004265       -49.2301495837  1.13E-06
    31 Broy./Diag. 0.10E+00    5.5     0.00004939       -49.2301579190 -8.34E-06
    32 Broy./Diag. 0.10E+00    5.5     0.00007268       -49.2301573377  5.81E-07
    33 Broy./Diag. 0.10E+00    5.4     0.00010808       -49.2301639414 -6.60E-06
    34 Broy./Diag. 0.10E+00    5.4     0.00016171       -49.2301693746 -5.43E-06
    35 Broy./Diag. 0.10E+00    5.4     0.00023640       -49.2301549095  1.45E-05
    36 Broy./Diag. 0.10E+00    5.3     0.00035594       -49.2301368711  1.80E-05
    37 Broy./Diag. 0.10E+00    5.3     0.00052357       -49.2301285551  8.32E-06
    38 Broy./Diag. 0.10E+00    5.4     0.00077571       -49.2301165563  1.20E-05
    39 Broy./Diag. 0.10E+00    5.3     0.00115437       -49.2301135352  3.02E-06
    40 Broy./Diag. 0.10E+00    5.4     0.00171921       -49.2301291940 -1.57E-05
    41 Broy./Diag. 0.10E+00    5.5     0.00256004       -49.2301307406 -1.55E-06
    42 Broy./Diag. 0.10E+00    5.4     0.00380736       -49.2301955649 -6.48E-05
    43 Broy./Diag. 0.10E+00    5.4     0.00565865       -49.2302762796 -8.07E-05
    44 Broy./Diag. 0.10E+00    5.5     0.00838710       -49.2302053607  7.09E-05
    45 Broy./Diag. 0.10E+00    5.5     0.01238060       -49.2301143389  9.10E-05
    46 Broy./Diag. 0.10E+00    5.5     0.01805495       -49.2300588817  5.55E-05
    47 Broy./Diag. 0.10E+00    5.6     0.02568612       -49.2300030316  5.59E-05
    48 Broy./Diag. 0.10E+00    5.5     0.03456119       -49.2299399736  6.31E-05
    49 Broy./Diag. 0.10E+00    5.4     0.04149481       -49.2298351319  1.05E-04
    50 Broy./Diag. 0.10E+00    5.4     0.04655788       -49.2295221641  3.13E-04
    51 Broy./Diag. 0.10E+00    5.3     0.06255842       -49.2289994745  5.23E-04
    52 Broy./Diag. 0.10E+00    5.3     0.06673072       -49.2281006878  8.99E-04
    53 Broy./Diag. 0.10E+00    5.3     0.05842826       -49.2265645901  1.54E-03
    54 Broy./Diag. 0.10E+00    5.4     0.04428699       -49.2248049597  1.76E-03
    55 Broy./Diag. 0.10E+00    5.4     0.03056336       -49.2233298315  1.48E-03
    56 Broy./Diag. 0.10E+00    5.4     0.02495542       -49.2221790541  1.15E-03
    57 Broy./Diag. 0.10E+00    5.3     0.02115251       -49.2213816383  7.97E-04
    58 Broy./Diag. 0.10E+00    5.4     0.01715218       -49.2208262703  5.55E-04
    59 Broy./Diag. 0.10E+00    5.7     0.01379329       -49.2204240733  4.02E-04
    60 Broy./Diag. 0.10E+00    5.7     0.01078114       -49.2193355323  1.09E-03
    61 Broy./Diag. 0.10E+00    5.6     0.00876695       -49.2211585748 -1.82E-03
    62 Broy./Diag. 0.10E+00    5.6     0.00805477       -49.2204937616  6.65E-04
    63 Broy./Diag. 0.10E+00    5.5     0.00535805       -49.2119862110  8.51E-03
    64 Broy./Diag. 0.10E+00    5.6     0.00796974       -49.2149600949 -2.97E-03
    65 Broy./Diag. 0.10E+00    5.6     0.00268806       -49.2156283825 -6.68E-04
    66 Broy./Diag. 0.10E+00    5.5     0.00861862       -49.2250632103 -9.43E-03
    67 Broy./Diag. 0.10E+00    5.3     0.01778890       -49.2663716616 -4.13E-02
    68 Broy./Diag. 0.10E+00    5.3     0.04671410       -49.3582070884 -9.18E-02
    69 Broy./Diag. 0.10E+00    5.3     0.04807927       -49.3599830356 -1.78E-03
    70 Broy./Diag. 0.10E+00    5.3     0.04066159       -49.3032130749  5.68E-02
    71 Broy./Diag. 0.10E+00    5.5     0.05654281       -49.3200957923 -1.69E-02
    72 Broy./Diag. 0.10E+00    5.4     0.05178494       -49.3087739033  1.13E-02
    73 Broy./Diag. 0.10E+00    5.5     0.04974094       -49.2577975245  5.10E-02
    74 Broy./Diag. 0.10E+00    5.5     0.07167278       -49.2340328942  2.38E-02
    75 Broy./Diag. 0.10E+00    5.6     0.05623923       -49.2695127807 -3.55E-02
    76 Broy./Diag. 0.10E+00    5.5     0.04239181       -49.3134986285 -4.40E-02
    77 Broy./Diag. 0.10E+00    5.5     0.03729993       -49.3010175162  1.25E-02
    78 Broy./Diag. 0.10E+00    5.4     0.04777280       -49.2709248419  3.01E-02
    79 Broy./Diag. 0.10E+00    5.4     0.05566659       -49.2555751494  1.53E-02
    80 Broy./Diag. 0.10E+00    5.4     0.07121228       -49.2475904850  7.98E-03
    81 Broy./Diag. 0.10E+00    5.4     0.07664629       -49.2211233011  2.65E-02
    82 Broy./Diag. 0.10E+00    5.5     0.07259321       -49.2133596964  7.76E-03
    83 Broy./Diag. 0.10E+00    5.4     0.05202632       -49.2538535984 -4.05E-02
    84 Broy./Diag. 0.10E+00    5.4     0.05861446       -49.2690484922 -1.52E-02
    85 Broy./Diag. 0.10E+00    5.4     0.03253751       -49.2747022715 -5.65E-03
    86 Broy./Diag. 0.10E+00    5.4     0.11274985       -49.2481644603  2.65E-02
    87 Broy./Diag. 0.10E+00    5.4     0.06518080       -49.2067680953  4.14E-02
    88 Broy./Diag. 0.10E+00    5.6     0.05974601       -49.1900824798  1.67E-02
    89 Broy./Diag. 0.10E+00    5.6     0.04437099       -49.1718257075  1.83E-02
    90 Broy./Diag. 0.10E+00    5.5     0.05619822       -49.1477528386  2.41E-02
    91 Broy./Diag. 0.10E+00    5.5     0.04313092       -49.1189523600  2.88E-02
    92 Broy./Diag. 0.10E+00    5.5     0.08130354       -49.1362874819 -1.73E-02
    93 Broy./Diag. 0.10E+00    5.4     0.03106953       -49.2054213831 -6.91E-02
    94 Broy./Diag. 0.10E+00    5.4     0.02489849       -49.2238390759 -1.84E-02
    95 Broy./Diag. 0.10E+00    5.5     0.03366722       -49.2587165238 -3.49E-02
    96 Broy./Diag. 0.10E+00    5.5     0.07345787       -49.2384355193  2.03E-02
    97 Broy./Diag. 0.10E+00    5.6     0.05360507       -49.2565883917 -1.82E-02
    98 Broy./Diag. 0.10E+00    5.5     0.05594318       -49.2927385868 -3.62E-02
    99 Broy./Diag. 0.10E+00    5.5     0.03322556       -49.2486198881  4.41E-02
   100 Broy./Diag. 0.10E+00    5.5     0.01928302       -49.2336271930  1.50E-02
   101 Broy./Diag. 0.10E+00    5.5     0.05893371       -49.2463393892 -1.27E-02
   102 Broy./Diag. 0.10E+00    5.5     0.01405494       -49.2448003106  1.54E-03
   103 Broy./Diag. 0.10E+00    5.5     0.11253676       -49.1894559898  5.53E-02
   104 Broy./Diag. 0.10E+00    5.4     0.08556749       -49.1590149253  3.04E-02
   105 Broy./Diag. 0.10E+00    5.3     0.09959836       -49.1085452267  5.05E-02
   106 Broy./Diag. 0.10E+00    5.4     0.07171753       -49.0614428901  4.71E-02
   107 Broy./Diag. 0.10E+00    5.4     0.06132598       -49.0579326101  3.51E-03
   108 Broy./Diag. 0.10E+00    5.4     0.12014699       -49.1682766479 -1.10E-01
   109 Broy./Diag. 0.10E+00    5.3     0.07399721       -49.2408703546 -7.26E-02
   110 Broy./Diag. 0.10E+00    5.4     0.07527147       -49.2657460423 -2.49E-02
   111 Broy./Diag. 0.10E+00    5.5     0.05307965       -49.2893194453 -2.36E-02
   112 Broy./Diag. 0.10E+00    5.6     0.05524394       -49.2728788234  1.64E-02
   113 Broy./Diag. 0.10E+00    5.5     0.06700039       -49.2304916278  4.24E-02
   114 Broy./Diag. 0.10E+00    5.5     0.02852897       -49.2051419997  2.53E-02
   115 Broy./Diag. 0.10E+00    5.5     0.02147496       -49.1992480137  5.89E-03
   116 Broy./Diag. 0.10E+00    5.6     0.06446837       -49.1909046771  8.34E-03
   117 Broy./Diag. 0.10E+00    5.5     0.04535785       -49.2181702297 -2.73E-02
   118 Broy./Diag. 0.10E+00    5.4     0.05236149       -49.2383146944 -2.01E-02
   119 Broy./Diag. 0.10E+00    5.4     0.06326407       -49.2806413289 -4.23E-02
   120 Broy./Diag. 0.10E+00    5.3     0.05316768       -49.2871325058 -6.49E-03
   121 Broy./Diag. 0.10E+00    5.4     0.06397812       -49.2951314439 -8.00E-03
   122 Broy./Diag. 0.10E+00    5.3     0.06829829       -49.2844359381  1.07E-02
   123 Broy./Diag. 0.10E+00    5.3     0.06279857       -49.2744077196  1.00E-02
   124 Broy./Diag. 0.10E+00    5.3     0.04086627       -49.2751237707 -7.16E-04
   125 Broy./Diag. 0.10E+00    5.3     0.05852999       -49.2604278291  1.47E-02
   126 Broy./Diag. 0.10E+00    5.4     0.06253791       -49.2244105464  3.60E-02
   127 Broy./Diag. 0.10E+00    5.6     0.03254004       -49.2002516158  2.42E-02
   128 Broy./Diag. 0.10E+00    5.6     0.01986952       -49.2040945803 -3.84E-03
   129 Broy./Diag. 0.10E+00    5.6     0.02604939       -49.2248444053 -2.07E-02
   130 Broy./Diag. 0.10E+00    5.5     0.02795689       -49.2757385807 -5.09E-02
   131 Broy./Diag. 0.10E+00    5.5     0.03161365       -49.2914541647 -1.57E-02
   132 Broy./Diag. 0.10E+00    5.4     0.07503077       -49.2748073844  1.66E-02
   133 Broy./Diag. 0.10E+00    5.4     0.06038356       -49.2778897642 -3.08E-03
   134 Broy./Diag. 0.10E+00    5.4     0.04997512       -49.2808678642 -2.98E-03
   135 Broy./Diag. 0.10E+00    5.4     0.03534730       -49.2829660996 -2.10E-03
   136 Broy./Diag. 0.10E+00    5.3     0.02486305       -49.2786039186  4.36E-03
   137 Broy./Diag. 0.10E+00    5.4     0.02611712       -49.2713089520  7.29E-03
   138 Broy./Diag. 0.10E+00    5.3     0.03716105       -49.2643964848  6.91E-03
   139 Broy./Diag. 0.10E+00    5.3     0.02643159       -49.2404268472  2.40E-02
   140 Broy./Diag. 0.10E+00    5.3     0.01859498       -49.2303189427  1.01E-02
   141 Broy./Diag. 0.10E+00    5.3     0.02388235       -49.2203433408  9.98E-03
   142 Broy./Diag. 0.10E+00    5.3     0.03235748       -49.2064757338  1.39E-02
   143 Broy./Diag. 0.10E+00    5.5     0.03289423       -49.1713212733  3.52E-02
   144 Broy./Diag. 0.10E+00    5.5     0.03700688       -49.1633134270  8.01E-03
   145 Broy./Diag. 0.10E+00    5.5     0.03840930       -49.1662342544 -2.92E-03
   146 Broy./Diag. 0.10E+00    5.5     0.03496963       -49.1863206982 -2.01E-02
   147 Broy./Diag. 0.10E+00    5.5     0.03800163       -49.2000488839 -1.37E-02
   148 Broy./Diag. 0.10E+00    5.4     0.06514319       -49.2184709341 -1.84E-02
   149 Broy./Diag. 0.10E+00    5.4     0.06714800       -49.2471414720 -2.87E-02
   150 Broy./Diag. 0.10E+00    5.4     0.04327391       -49.2542721049 -7.13E-03
   151 Broy./Diag. 0.10E+00    5.5     0.05265083       -49.2584184434 -4.15E-03
   152 Broy./Diag. 0.10E+00    5.4     0.04735310       -49.2734888326 -1.51E-02
   153 Broy./Diag. 0.10E+00    5.3     0.03079887       -49.2968016264 -2.33E-02
   154 Broy./Diag. 0.10E+00    5.4     0.04016446       -49.2925158317  4.29E-03
   155 Broy./Diag. 0.10E+00    5.3     0.03220286       -49.2959467131 -3.43E-03
   156 Broy./Diag. 0.10E+00    5.3     0.03260842       -49.2780178035  1.79E-02
   157 Broy./Diag. 0.10E+00    5.4     0.02964926       -49.2584888276  1.95E-02
   158 Broy./Diag. 0.10E+00    5.4     0.04670823       -49.2589297430 -4.41E-04
   159 Broy./Diag. 0.10E+00    5.4     0.05817988       -49.2583747600  5.55E-04
   160 Broy./Diag. 0.10E+00    5.6     0.04564949       -49.2617072778 -3.33E-03
   161 Broy./Diag. 0.10E+00    5.6     0.01941802       -49.2427613437  1.89E-02
   162 Broy./Diag. 0.10E+00    5.5     0.02496355       -49.2233376935  1.94E-02
   163 Broy./Diag. 0.10E+00    5.5     0.01865762       -49.2363843029 -1.30E-02
   164 Broy./Diag. 0.10E+00    5.6     0.02392503       -49.2433899954 -7.01E-03
   165 Broy./Diag. 0.10E+00    5.3     0.02461101       -49.2502098040 -6.82E-03
   166 Broy./Diag. 0.10E+00    5.3     0.04111334       -49.2380778539  1.21E-02
   167 Broy./Diag. 0.10E+00    5.3     0.04596335       -49.2247127971  1.34E-02
   168 Broy./Diag. 0.10E+00    5.3     0.03621916       -49.2090467460  1.57E-02
   169 Broy./Diag. 0.10E+00    5.4     0.03407022       -49.2043355320  4.71E-03
   170 Broy./Diag. 0.10E+00    5.3     0.04179124       -49.2068925851 -2.56E-03
   171 Broy./Diag. 0.10E+00    5.3     0.05199294       -49.2019305408  4.96E-03
   172 Broy./Diag. 0.10E+00    5.3     0.05650052       -49.1922761246  9.65E-03
   173 Broy./Diag. 0.10E+00    5.3     0.03780060       -49.1969222829 -4.65E-03
   174 Broy./Diag. 0.10E+00    5.4     0.04603479       -49.2268967885 -3.00E-02
   175 Broy./Diag. 0.10E+00    5.4     0.03513266       -49.2401101839 -1.32E-02
   176 Broy./Diag. 0.10E+00    5.4     0.05658990       -49.2482318247 -8.12E-03
   177 Broy./Diag. 0.10E+00    5.6     0.05031413       -49.2650478673 -1.68E-02
   178 Broy./Diag. 0.10E+00    5.5     0.03827551       -49.2561786270  8.87E-03
   179 Broy./Diag. 0.10E+00    5.5     0.04031152       -49.2676579716 -1.15E-02
   180 Broy./Diag. 0.10E+00    5.5     0.02756965       -49.3069529975 -3.93E-02
   181 Broy./Diag. 0.10E+00    5.6     0.02436875       -49.3012889467  5.66E-03
   182 Broy./Diag. 0.10E+00    5.3     0.01559714       -49.2884204319  1.29E-02
   183 Broy./Diag. 0.10E+00    5.4     0.01795753       -49.2738660756  1.46E-02
   184 Broy./Diag. 0.10E+00    5.3     0.03573769       -49.2409699404  3.29E-02
   185 Broy./Diag. 0.10E+00    5.3     0.03189169       -49.2145685269  2.64E-02
   186 Broy./Diag. 0.10E+00    5.3     0.04519187       -49.1903766442  2.42E-02
   187 Broy./Diag. 0.10E+00    5.3     0.07352076       -49.1700503659  2.03E-02
   188 Broy./Diag. 0.10E+00    5.3     0.09408658       -49.1493642837  2.07E-02
   189 Broy./Diag. 0.10E+00    5.3     0.09001548       -49.1604265979 -1.11E-02
   190 Broy./Diag. 0.10E+00    5.4     0.06478543       -49.1629007669 -2.47E-03
   191 Broy./Diag. 0.10E+00    5.4     0.05471833       -49.1846390997 -2.17E-02
   192 Broy./Diag. 0.10E+00    5.4     0.03687160       -49.1765881037  8.05E-03
   193 Broy./Diag. 0.10E+00    5.4     0.02927470       -49.1933917358 -1.68E-02
   194 Broy./Diag. 0.10E+00    5.3     0.10619600       -49.2364708848 -4.31E-02
   195 Broy./Diag. 0.10E+00    5.5     0.05916303       -49.2946842949 -5.82E-02
   196 Broy./Diag. 0.10E+00    5.5     0.02059578       -49.3095699492 -1.49E-02
   197 Broy./Diag. 0.10E+00    5.6     0.01673200       -49.2726854625  3.69E-02
   198 Broy./Diag. 0.10E+00    5.5     0.02076775       -49.2457779969  2.69E-02
   199 Broy./Diag. 0.10E+00    5.5     0.03243993       -49.2330490006  1.27E-02
   200 Broy./Diag. 0.10E+00    5.5     0.03950647       -49.2379614890 -4.91E-03
   201 Broy./Diag. 0.10E+00    5.5     0.03687692       -49.2402297696 -2.27E-03
   202 Broy./Diag. 0.10E+00    5.3     0.04483109       -49.2501879475 -9.96E-03
   203 Broy./Diag. 0.10E+00    5.4     0.05204194       -49.2478573591  2.33E-03
   204 Broy./Diag. 0.10E+00    5.4     0.05624833       -49.2484651655 -6.08E-04
   205 Broy./Diag. 0.10E+00    5.3     0.01924516       -49.2528839319 -4.42E-03
   206 Broy./Diag. 0.10E+00    5.3     0.01896614       -49.2625389913 -9.66E-03
   207 Broy./Diag. 0.10E+00    5.3     0.02150532       -49.2654088013 -2.87E-03
   208 Broy./Diag. 0.10E+00    5.5     0.06193480       -49.2391121241  2.63E-02
   209 Broy./Diag. 0.10E+00    5.4     0.06984436       -49.2241187310  1.50E-02
   210 Broy./Diag. 0.10E+00    5.3     0.05300227       -49.1608221705  6.33E-02
   211 Broy./Diag. 0.10E+00    5.3     0.04013306       -49.1701915842 -9.37E-03
   212 Broy./Diag. 0.10E+00    5.5     0.04042625       -49.1440241712  2.62E-02
   213 Broy./Diag. 0.10E+00    5.5     0.11587966       -49.2181952293 -7.42E-02
   214 Broy./Diag. 0.10E+00    5.6     0.09499005       -49.2562974971 -3.81E-02
   215 Broy./Diag. 0.10E+00    5.5     0.04212698       -49.2470251936  9.27E-03
   216 Broy./Diag. 0.10E+00    5.5     0.02818069       -49.2660017647 -1.90E-02
   217 Broy./Diag. 0.10E+00    5.5     0.03562680       -49.2673975142 -1.40E-03
   218 Broy./Diag. 0.10E+00    5.4     0.04281601       -49.2630651236  4.33E-03
   219 Broy./Diag. 0.10E+00    5.5     0.06268402       -49.2672458713 -4.18E-03
   220 Broy./Diag. 0.10E+00    5.4     0.07331687       -49.2597969461  7.45E-03
   221 Broy./Diag. 0.10E+00    5.4     0.05751893       -49.2564405025  3.36E-03
   222 Broy./Diag. 0.10E+00    5.5     0.01232560       -49.2624342154 -5.99E-03
   223 Broy./Diag. 0.10E+00    5.4     0.01990589       -49.2783935328 -1.60E-02
   224 Broy./Diag. 0.10E+00    5.5     0.00910085       -49.2812320071 -2.84E-03
   225 Broy./Diag. 0.10E+00    5.6     0.02104094       -49.2745599221  6.67E-03
   226 Broy./Diag. 0.10E+00    5.6     0.02284054       -49.2664658693  8.09E-03
   227 Broy./Diag. 0.10E+00    5.6     0.04357096       -49.2586827121  7.78E-03
   228 Broy./Diag. 0.10E+00    5.5     0.03358601       -49.2697720976 -1.11E-02
   229 Broy./Diag. 0.10E+00    5.5     0.02847698       -49.2895839111 -1.98E-02
   230 Broy./Diag. 0.10E+00    5.4     0.05469404       -49.2684118600  2.12E-02
   231 Broy./Diag. 0.10E+00    5.4     0.05340970       -49.2681991293  2.13E-04
   232 Broy./Diag. 0.10E+00    5.3     0.10479017       -49.2351269065  3.31E-02
   233 Broy./Diag. 0.10E+00    5.4     0.09176989       -49.1978151847  3.73E-02
   234 Broy./Diag. 0.10E+00    5.3     0.07283667       -49.2000496127 -2.23E-03
   235 Broy./Diag. 0.10E+00    5.3     0.06235384       -49.2388085282 -3.88E-02
   236 Broy./Diag. 0.10E+00    5.4     0.06127982       -49.2592263847 -2.04E-02
   237 Broy./Diag. 0.10E+00    5.5     0.04567717       -49.2613138773 -2.09E-03
   238 Broy./Diag. 0.10E+00    5.4     0.04620280       -49.2558437959  5.47E-03
   239 Broy./Diag. 0.10E+00    5.4     0.05602750       -49.2359086586  1.99E-02
   240 Broy./Diag. 0.10E+00    5.6     0.04224586       -49.2075562156  2.84E-02
   241 Broy./Diag. 0.10E+00    5.7     0.03748621       -49.1829218824  2.46E-02
   242 Broy./Diag. 0.10E+00    5.5     0.05599520       -49.1675286432  1.54E-02
   243 Broy./Diag. 0.10E+00    5.5     0.08024082       -49.1673235204  2.05E-04
   244 Broy./Diag. 0.10E+00    5.4     0.07616029       -49.1718196700 -4.50E-03
   245 Broy./Diag. 0.10E+00    5.5     0.06900612       -49.1631593466  8.66E-03
   246 Broy./Diag. 0.10E+00    5.4     0.05862417       -49.1457511183  1.74E-02
   247 Broy./Diag. 0.10E+00    5.4     0.06046554       -49.1712993457 -2.55E-02
   248 Broy./Diag. 0.10E+00    5.3     0.05218869       -49.2019564945 -3.07E-02
   249 Broy./Diag. 0.10E+00    5.4     0.07747564       -49.2146829046 -1.27E-02
   250 Broy./Diag. 0.10E+00    5.4     0.06974672       -49.2355199984 -2.08E-02
   251 Broy./Diag. 0.10E+00    5.3     0.05536235       -49.2432068843 -7.69E-03
   252 Broy./Diag. 0.10E+00    5.4     0.08487917       -49.2602201417 -1.70E-02
   253 Broy./Diag. 0.10E+00    5.4     0.10602213       -49.2799000942 -1.97E-02
   254 Broy./Diag. 0.10E+00    5.4     0.06739327       -49.2543694579  2.55E-02
   255 Broy./Diag. 0.10E+00    5.5     0.01925599       -49.2252796416  2.91E-02
   256 Broy./Diag. 0.10E+00    5.6     0.05068052       -49.2222662410  3.01E-03
   257 Broy./Diag. 0.10E+00    5.7     0.04177794       -49.1960334240  2.62E-02
   258 Broy./Diag. 0.10E+00    5.5     0.01640097       -49.1723041559  2.37E-02
   259 Broy./Diag. 0.10E+00    5.4     0.02576383       -49.1692093748  3.09E-03
   260 Broy./Diag. 0.10E+00    5.5     0.09552869       -49.1334931540  3.57E-02
   261 Broy./Diag. 0.10E+00    5.5     0.11536350       -49.1834466797 -5.00E-02
   262 Broy./Diag. 0.10E+00    5.4     0.13043068       -49.2265598459 -4.31E-02
   263 Broy./Diag. 0.10E+00    5.4     0.06979776       -49.2607440787 -3.42E-02
   264 Broy./Diag. 0.10E+00    5.3     0.06085082       -49.2782058045 -1.75E-02
   265 Broy./Diag. 0.10E+00    5.4     0.02865419       -49.2928977292 -1.47E-02
   266 Broy./Diag. 0.10E+00    5.3     0.01468072       -49.2906894323  2.21E-03
   267 Broy./Diag. 0.10E+00    5.4     0.02788804       -49.2716929382  1.90E-02
   268 Broy./Diag. 0.10E+00    5.4     0.01606782       -49.2709946870  6.98E-04
   269 Broy./Diag. 0.10E+00    5.4     0.01567651       -49.2621127567  8.88E-03
   270 Broy./Diag. 0.10E+00    5.5     0.01085557       -49.2525616455  9.55E-03
   271 Broy./Diag. 0.10E+00    5.6     0.01180080       -49.2473915683  5.17E-03
   272 Broy./Diag. 0.10E+00    5.7     0.01011381       -49.2458586095  1.53E-03
   273 Broy./Diag. 0.10E+00    5.8     0.00284609       -49.2469314578 -1.07E-03
   274 Broy./Diag. 0.10E+00    5.6     0.00489127       -49.2490210874 -2.09E-03
   275 Broy./Diag. 0.10E+00    5.4     0.00953979       -49.2456232174  3.40E-03
   276 Broy./Diag. 0.10E+00    5.4     0.00308573       -49.2408263776  4.80E-03
   277 Broy./Diag. 0.10E+00    5.3     0.00491455       -49.2379764282  2.85E-03
   278 Broy./Diag. 0.10E+00    5.3     0.00695253       -49.2350059610  2.97E-03
   279 Broy./Diag. 0.10E+00    5.4     0.00413791       -49.2298565767  5.15E-03
   280 Broy./Diag. 0.10E+00    5.3     0.00720100       -49.2266505990  3.21E-03
   281 Broy./Diag. 0.10E+00    5.4     0.00154855       -49.2282425066 -1.59E-03
   282 Broy./Diag. 0.10E+00    5.3     0.00407637       -49.2299360704 -1.69E-03
   283 Broy./Diag. 0.10E+00    5.3     0.00304514       -49.2304063746 -4.70E-04
   284 Broy./Diag. 0.10E+00    5.4     0.00216110       -49.2306729861 -2.67E-04
   285 Broy./Diag. 0.10E+00    5.6     0.00152399       -49.2312154685 -5.42E-04
   286 Broy./Diag. 0.10E+00    5.6     0.00149839       -49.2314619673 -2.46E-04
   287 Broy./Diag. 0.10E+00    5.6     0.00266795       -49.2312912834  1.71E-04
   288 Broy./Diag. 0.10E+00    5.6     0.00214181       -49.2311228507  1.68E-04
   289 Broy./Diag. 0.10E+00    5.6     0.00181558       -49.2311261454 -3.29E-06
   290 Broy./Diag. 0.10E+00    5.5     0.00209750       -49.2309918431  1.34E-04
   291 Broy./Diag. 0.10E+00    5.4     0.00179257       -49.2310214676 -2.96E-05
   292 Broy./Diag. 0.10E+00    5.4     0.00200338       -49.2309475772  7.39E-05
   293 Broy./Diag. 0.10E+00    5.3     0.00298618       -49.2309033691  4.42E-05
   294 Broy./Diag. 0.10E+00    5.3     0.00437613       -49.2308764755  2.69E-05
   295 Broy./Diag. 0.10E+00    5.4     0.00630253       -49.2308369468  3.95E-05
   296 Broy./Diag. 0.10E+00    5.3     0.00888292       -49.2307581753  7.88E-05
   297 Broy./Diag. 0.10E+00    5.3     0.01264775       -49.2306839406  7.42E-05
   298 Broy./Diag. 0.10E+00    5.4     0.01775665       -49.2306336073  5.03E-05
   299 Broy./Diag. 0.10E+00    5.3     0.02386684       -49.2303587854  2.75E-04
   300 Broy./Diag. 0.10E+00    5.6     0.02884917       -49.2303786888 -1.99E-05
   301 Broy./Diag. 0.10E+00    5.6     0.04552218       -49.2297658492  6.13E-04
   302 Broy./Diag. 0.10E+00    5.7     0.06124900       -49.2289335301  8.32E-04
   303 Broy./Diag. 0.10E+00    5.7     0.06819207       -49.2279662972  9.67E-04
   304 Broy./Diag. 0.10E+00    5.4     0.06163715       -49.2268168014  1.15E-03
   305 Broy./Diag. 0.10E+00    5.4     0.04729514       -49.2248942749  1.92E-03
   306 Broy./Diag. 0.10E+00    5.4     0.03850989       -49.2233949816  1.50E-03
   307 Broy./Diag. 0.10E+00    5.3     0.03529332       -49.2223336796  1.06E-03
   308 Broy./Diag. 0.10E+00    5.3     0.03056438       -49.2210266068  1.31E-03
   309 Broy./Diag. 0.10E+00    5.3     0.02466665       -49.2215669725 -5.40E-04
   310 Broy./Diag. 0.10E+00    5.3     0.01957733       -49.2221871098 -6.20E-04
   311 Broy./Diag. 0.10E+00    5.3     0.01653403       -49.2225456534 -3.59E-04
   312 Broy./Diag. 0.10E+00    5.3     0.01437134       -49.2257068510 -3.16E-03
   313 Broy./Diag. 0.10E+00    5.4     0.01928495       -49.2300748544 -4.37E-03
   314 Broy./Diag. 0.10E+00    5.4     0.02858634       -49.2361347803 -6.06E-03
   315 Broy./Diag. 0.10E+00    5.5     0.03959034       -49.2560947077 -2.00E-02
   316 Broy./Diag. 0.10E+00    5.6     0.03859542       -49.2867878391 -3.07E-02
   317 Broy./Diag. 0.10E+00    5.6     0.04742714       -49.2635315463  2.33E-02
   318 Broy./Diag. 0.10E+00    5.6     0.04842446       -49.2453097366  1.82E-02
   319 Broy./Diag. 0.10E+00    5.6     0.09748309       -49.3023010622 -5.70E-02
   320 Broy./Diag. 0.10E+00    5.4     0.04299044       -49.3633206087 -6.10E-02
   321 Broy./Diag. 0.10E+00    5.4     0.17661405       -49.3358198335  2.75E-02
   322 Broy./Diag. 0.10E+00    5.3     0.11256325       -49.3193626285  1.65E-02
   323 Broy./Diag. 0.10E+00    5.3     0.06454893       -49.2743254916  4.50E-02
   324 Broy./Diag. 0.10E+00    5.3     0.05741731       -49.2796075129 -5.28E-03
   325 Broy./Diag. 0.10E+00    5.3     0.07573885       -49.2454274772  3.42E-02
   326 Broy./Diag. 0.10E+00    5.4     0.04667488       -49.0952263582  1.50E-01
   327 Broy./Diag. 0.10E+00    5.3     0.03623585       -49.0345005144  6.07E-02
   328 Broy./Diag. 0.10E+00    5.3     0.01784543       -49.0531603118 -1.87E-02
   329 Broy./Diag. 0.10E+00    5.4     0.03987340       -49.0464492964  6.71E-03
   330 Broy./Diag. 0.10E+00    5.6     0.03683594       -49.1006798685 -5.42E-02
   331 Broy./Diag. 0.10E+00    5.6     0.30190397       -49.1926349383 -9.20E-02
   332 Broy./Diag. 0.10E+00    5.6     0.06831871       -49.3140404579 -1.21E-01
   333 Broy./Diag. 0.10E+00    5.5     0.09550009       -49.3328581886 -1.88E-02
   334 Broy./Diag. 0.10E+00    5.5     0.02537217       -49.3391936679 -6.34E-03
   335 Broy./Diag. 0.10E+00    5.5     0.04825424       -49.3590161598 -1.98E-02
   336 Broy./Diag. 0.10E+00    5.4     0.02588609       -49.3682108315 -9.19E-03
   337 Broy./Diag. 0.10E+00    5.4     0.03099314       -49.3658654086  2.35E-03
   338 Broy./Diag. 0.10E+00    5.3     0.03375910       -49.3575173131  8.35E-03
   339 Broy./Diag. 0.10E+00    5.3     0.02986759       -49.3383264189  1.92E-02
   340 Broy./Diag. 0.10E+00    5.3     0.01067832       -49.3312041208  7.12E-03
   341 Broy./Diag. 0.10E+00    5.3     0.02739765       -49.3217291359  9.47E-03
   342 Broy./Diag. 0.10E+00    5.4     0.01552476       -49.3180740528  3.66E-03
   343 Broy./Diag. 0.10E+00    5.3     0.02342107       -49.3153441252  2.73E-03
   344 Broy./Diag. 0.10E+00    5.3     0.01459387       -49.3292331930 -1.39E-02
   345 Broy./Diag. 0.10E+00    5.4     0.06380596       -49.3185234850  1.07E-02
[...]
   418 Broy./Diag. 0.10E+00    5.5     0.00844110       -49.2314305612  8.90E-03
   419 Broy./Diag. 0.10E+00    5.3     0.04929556       -49.2396739149 -8.24E-03
   420 Broy./Diag. 0.10E+00    5.3     0.01541921       -49.2459175631 -6.24E-03
   421 Broy./Diag. 0.10E+00    5.3     0.03486551       -49.2485746613 -2.66E-03
   422 Broy./Diag. 0.10E+00    5.3     0.03903323       -49.2518658197 -3.29E-03
   423 Broy./Diag. 0.10E+00    5.3     0.03695188       -49.2493690775  2.50E-03
   424 Broy./Diag. 0.10E+00    5.3     0.03231485       -49.2415061459  7.86E-03
   425 Broy./Diag. 0.10E+00    5.3     0.01210352       -49.2378611693  3.64E-03
   426 Broy./Diag. 0.10E+00    5.3     0.00950895       -49.2433126453 -5.45E-03
   427 Broy./Diag. 0.10E+00    5.4     0.00817022       -49.2447954281 -1.48E-03
   428 Broy./Diag. 0.10E+00    5.6     0.00713923       -49.2455270518 -7.32E-04
   429 Broy./Diag. 0.10E+00    5.6     0.01291707       -49.2486522523 -3.13E-03
   430 Broy./Diag. 0.10E+00    5.6     0.00703444       -49.2501592051 -1.51E-03
   431 Broy./Diag. 0.10E+00    5.5     0.00410008       -49.2464180774  3.74E-03
   432 Broy./Diag. 0.10E+00    5.5     0.01984150       -49.2433575617  3.06E-03
   433 Broy./Diag. 0.10E+00    5.5     0.01112247       -49.2472920949 -3.93E-03
   434 Broy./Diag. 0.10E+00    5.4     0.00411340       -49.2516811812 -4.39E-03
   435 Broy./Diag. 0.10E+00    5.3     0.00603509       -49.2540165534 -2.34E-03
   436 Broy./Diag. 0.10E+00    5.3     0.00426697       -49.2531673788  8.49E-04
   437 Broy./Diag. 0.10E+00    5.3     0.00217745       -49.2514477723  1.72E-03
   438 Broy./Diag. 0.10E+00    5.3     0.00762460       -49.2469691539  4.48E-03
   439 Broy./Diag. 0.10E+00    5.3     0.01140887       -49.2396863418  7.28E-03
   440 Broy./Diag. 0.10E+00    5.3     0.01230027       -49.2413248597 -1.64E-03
   441 Broy./Diag. 0.10E+00    5.4     0.01010688       -49.2425658259 -1.24E-03
   442 Broy./Diag. 0.10E+00    5.4     0.00877030       -49.2416008464  9.65E-04
   443 Broy./Diag. 0.10E+00    5.6     0.01637901       -49.2376554937  3.95E-03
   444 Broy./Diag. 0.10E+00    5.6     0.01389939       -49.2362866401  1.37E-03
   445 Broy./Diag. 0.10E+00    5.6     0.01640936       -49.2330901587  3.20E-03
   446 Broy./Diag. 0.10E+00    5.5     0.02144078       -49.2301808272  2.91E-03
   447 Broy./Diag. 0.10E+00    5.6     0.02986593       -49.2279297447  2.25E-03
   448 Broy./Diag. 0.10E+00    5.4     0.04258197       -49.2256706825  2.26E-03
   449 Broy./Diag. 0.10E+00    5.4     0.05528746       -49.2235953202  2.08E-03
   450 Broy./Diag. 0.10E+00    5.3     0.05977255       -49.2228652228  7.30E-04
   451 Broy./Diag. 0.10E+00    5.3     0.05532257       -49.2203712160  2.49E-03
   452 Broy./Diag. 0.10E+00    5.4     0.06653716       -49.2214700574 -1.10E-03
   453 Broy./Diag. 0.10E+00    5.3     0.06523952       -49.2223022554 -8.32E-04
   454 Broy./Diag. 0.10E+00    5.3     0.05215226       -49.2187048023  3.60E-03
   455 Broy./Diag. 0.10E+00    5.3     0.04677312       -49.2291021162 -1.04E-02
   456 Broy./Diag. 0.10E+00    5.3     0.05635157       -49.2495946237 -2.05E-02
   457 Broy./Diag. 0.10E+00    5.4     0.02026170       -49.2324941381  1.71E-02
   458 Broy./Diag. 0.10E+00    5.5     0.01805430       -49.2246984740  7.80E-03
   459 Broy./Diag. 0.10E+00    5.5     0.01752622       -49.2273271527 -2.63E-03
   460 Broy./Diag. 0.10E+00    5.5     0.01351165       -49.2431102391 -1.58E-02
   461 Broy./Diag. 0.10E+00    5.6     0.03150619       -49.2777916611 -3.47E-02
   462 Broy./Diag. 0.10E+00    5.5     0.07690550       -49.3322074831 -5.44E-02
   463 Broy./Diag. 0.10E+00    5.5     0.06615544       -49.3054784756  2.67E-02
   464 Broy./Diag. 0.10E+00    5.4     0.08897426       -49.3277006032 -2.22E-02
   465 Broy./Diag. 0.10E+00    5.5     0.19873106       -49.2846427410  4.31E-02
   466 Broy./Diag. 0.10E+00    5.3     0.06573872       -49.2159624637  6.87E-02
   467 Broy./Diag. 0.10E+00    5.4     0.05285436       -49.2341585839 -1.82E-02
   468 Broy./Diag. 0.10E+00    5.3     0.03672688       -49.2744510785 -4.03E-02
   469 Broy./Diag. 0.10E+00    5.3     0.05610850       -49.3077798548 -3.33E-02
   470 Broy./Diag. 0.10E+00    5.4     0.07667001       -49.3388671202 -3.11E-02
   471 Broy./Diag. 0.10E+00    5.3     0.12173058       -49.3008354461  3.80E-02
   472 Broy./Diag. 0.10E+00    5.3     0.04366619       -49.2992067718  1.63E-03
   473 Broy./Diag. 0.10E+00    5.4     0.04571139       -49.3042978104 -5.09E-03
   474 Broy./Diag. 0.10E+00    5.7     0.04929570       -49.3086744330 -4.38E-03
   475 Broy./Diag. 0.10E+00    5.7     0.06969060       -49.3021418755  6.53E-03
   476 Broy./Diag. 0.10E+00    5.6     0.06925588       -49.2768968961  2.52E-02
   477 Broy./Diag. 0.10E+00    5.5     0.05228427       -49.2739022027  2.99E-03
   478 Broy./Diag. 0.10E+00    5.4     0.06193336       -49.2689592619  4.94E-03
   479 Broy./Diag. 0.10E+00    5.4     0.05473620       -49.2688253686  1.34E-04
   480 Broy./Diag. 0.10E+00    5.4     0.04108969       -49.2709236844 -2.10E-03
   481 Broy./Diag. 0.10E+00    5.5     0.02763380       -49.2693817475  1.54E-03
   482 Broy./Diag. 0.10E+00    5.3     0.01125683       -49.2573751172  1.20E-02
   483 Broy./Diag. 0.10E+00    5.3     0.01229984       -49.2588704141 -1.50E-03
   484 Broy./Diag. 0.10E+00    5.3     0.02207801       -49.2575600358  1.31E-03
   485 Broy./Diag. 0.10E+00    5.4     0.02700464       -49.2660785562 -8.52E-03
   486 Broy./Diag. 0.10E+00    5.6     0.02034619       -49.2542160253  1.19E-02
   487 Broy./Diag. 0.10E+00    5.4     0.04174090       -49.2433918643  1.08E-02
   488 Broy./Diag. 0.10E+00    5.4     0.06285610       -49.2354281749  7.96E-03
   489 Broy./Diag. 0.10E+00    5.4     0.04224615       -49.2442944336 -8.87E-03
   490 Broy./Diag. 0.10E+00    5.6     0.03658466       -49.2495164401 -5.22E-03
   491 Broy./Diag. 0.10E+00    5.6     0.04139604       -49.2573039726 -7.79E-03
   492 Broy./Diag. 0.10E+00    5.6     0.01989613       -49.2750572065 -1.78E-02
   493 Broy./Diag. 0.10E+00    5.7     0.01829320       -49.2787974010 -3.74E-03
   494 Broy./Diag. 0.10E+00    5.5     0.04376244       -49.2906852304 -1.19E-02
   495 Broy./Diag. 0.10E+00    5.5     0.01895934       -49.2723226805  1.84E-02
   496 Broy./Diag. 0.10E+00    5.4     0.00953972       -49.2621398314  1.02E-02
   497 Broy./Diag. 0.10E+00    5.5     0.04327261       -49.2859084675 -2.38E-02
   498 Broy./Diag. 0.10E+00    5.4     0.05386914       -49.2546473641  3.13E-02
   499 Broy./Diag. 0.10E+00    5.3     0.08426798       -49.2719858662 -1.73E-02
   500 Broy./Diag. 0.10E+00    5.4     0.08254136       -49.2695335990  2.45E-03

  Leaving inner SCF loop after reaching   500 steps.


  Electronic density on regular grids:         -7.1607148029        2.8392851971
  Core density on regular grids:               10.0000000000        0.0000000000
  Hard and soft densities (Lebedev):          -13.6411010294      -10.7677032702
  Total Rho_soft + Rho1_hard - Rho1_soft      -10.0341125621
  Total charge density (r-space):              -0.0341125621
  Total Rho_soft + Rho0_soft (g-space):        -0.0341126228

  Overlap energy of the core charge distribution:               0.00000845868521
  Self energy of the core charge distribution:                -32.50467561761386
  Core Hamiltonian energy:                                    -13.34478814115630
  Hartree energy:                                              11.43072800107100
  Exchange-correlation energy:                                 -2.13448295152296
  Hartree-Fock Exchange energy:                                -1.88911277846172

  GAPW| Exc from hard and soft atomic rho1:                    -3.87291083536434
  GAPW| local Eh = 1 center integrals:                         -6.95429973460993

  Total energy:                                               -49.26953359897291

 *******************************************************************************
 *   ___                                                                       *
 *  /   \                                                                      *
 * [ABORT]                                                                     *
 *  \___/     SCF run NOT converged. To continue the calculation regardless,   *
 *    |             please set the keyword IGNORE_CONVERGENCE_FAILURE.         *
 *  O/|                                                                        *
 * /| |                                                                        *
 * / \                                                            qs_scf.F:611 *
 *******************************************************************************


 ===== Routine Calling Stack ===== 

            3 scf_env_do_scf
            2 qs_energies
            1 CP2K

 *******************************************************************************
 *   ___                                                                       *
 *  /   \                                                                      *
 * [ABORT]                                                                     *
 *  \___/     SCF run NOT converged. To continue the calculation regardless,   *
 *    |             please set the keyword IGNORE_CONVERGENCE_FAILURE.         *
 *  O/|                                                                        *
 * /| |                                                                        *
 * / \                                                            qs_scf.F:611 *
 *******************************************************************************


 ===== Routine Calling Stack ===== 

            3 scf_env_do_scf
            2 qs_energies
            1 CP2K

 *******************************************************************************
 *   ___                                                                       *
 *  /   \                                                                      *
 * [ABORT]                                                                     *
 *  \___/     SCF run NOT converged. To continue the calculation regardless,   *
 *    |             please set the keyword IGNORE_CONVERGENCE_FAILURE.         *
 *  O/|                                                                        *
 * /| |                                                                        *
 * / \                                                            qs_scf.F:611 *
 *******************************************************************************


 ===== Routine Calling Stack ===== 

            3 scf_env_do_scf
            2 qs_energies
            1 CP2K

 *******************************************************************************
 *   ___                                                                       *
 *  /   \                                                                      *
 * [ABORT]                                                                     *
 *  \___/     SCF run NOT converged. To continue the calculation regardless,   *
 *    |             please set the keyword IGNORE_CONVERGENCE_FAILURE.         *
 *  O/|                                                                        *
 * /| |                                                                        *
 * / \                                                            qs_scf.F:611 *
 *******************************************************************************


 ===== Routine Calling Stack ===== 

            3 scf_env_do_scf
            2 qs_energies
            1 CP2K

 *******************************************************************************
 *   ___                                                                       *
 *  /   \                                                                      *
 * [ABORT]                                                                     *
 *  \___/     SCF run NOT converged. To continue the calculation regardless,   *
 *    |             please set the keyword IGNORE_CONVERGENCE_FAILURE.         *
 *  O/|                                                                        *
 * /| |                                                                        *
 * / \                                                            qs_scf.F:611 *
 *******************************************************************************


 ===== Routine Calling Stack ===== 

            3 scf_env_do_scf
            2 qs_energies
            1 CP2K

 *******************************************************************************
 *   ___                                                                       *
 *  /   \                                                                      *
 * [ABORT]                                                                     *
 *  \___/     SCF run NOT converged. To continue the calculation regardless,   *
 *    |             please set the keyword IGNORE_CONVERGENCE_FAILURE.         *
 *  O/|                                                                        *
 * /| |                                                                        *
 * / \                                                            qs_scf.F:611 *
 *******************************************************************************


 ===== Routine Calling Stack ===== 

            3 scf_env_do_scf
            2 qs_energies
            1 CP2K

 *******************************************************************************
 *   ___                                                                       *
 *  /   \                                                                      *
 * [ABORT]                                                                     *
 *  \___/     SCF run NOT converged. To continue the calculation regardless,   *
 *    |             please set the keyword IGNORE_CONVERGENCE_FAILURE.         *
 *  O/|                                                                        *
 * /| |                                                                        *
 * / \                                                            qs_scf.F:611 *
 *******************************************************************************


 ===== Routine Calling Stack ===== 

            3 scf_env_do_scf
            2 qs_energies
            1 CP2K

 *******************************************************************************
 *   ___                                                                       *
 *  /   \                                                                      *
 * [ABORT]                                                                     *
 *  \___/     SCF run NOT converged. To continue the calculation regardless,   *
 *    |             please set the keyword IGNORE_CONVERGENCE_FAILURE.         *
 *  O/|                                                                        *
 * /| |                                                                        *
 * / \                                                            qs_scf.F:611 *
 *******************************************************************************


 ===== Routine Calling Stack ===== 

            3 scf_env_do_scf
            2 qs_energies
            1 CP2K

 *******************************************************************************
 *   ___                                                                       *
 *  /   \                                                                      *
 * [ABORT]                                                                     *
 *  \___/     SCF run NOT converged. To continue the calculation regardless,   *
 *    |             please set the keyword IGNORE_CONVERGENCE_FAILURE.         *
 *  O/|                                                                        *
 * /| |                                                                        *
 * / \                                                            qs_scf.F:611 *
 *******************************************************************************


 ===== Routine Calling Stack ===== 

            3 scf_env_do_scf
            2 qs_energies
            1 CP2K

 *******************************************************************************
 *   ___                                                                       *
 *  /   \                                                                      *
 * [ABORT]                                                                     *
 *  \___/     SCF run NOT converged. To continue the calculation regardless,   *
 *    |             please set the keyword IGNORE_CONVERGENCE_FAILURE.         *
 *  O/|                                                                        *
 * /| |                                                                        *
 * / \                                                            qs_scf.F:611 *
 *******************************************************************************


 ===== Routine Calling Stack ===== 

            3 scf_env_do_scf
            2 qs_energies
            1 CP2K

 *******************************************************************************
 *   ___                                                                       *
 *  /   \                                                                      *
 * [ABORT]                                                                     *
 *  \___/     SCF run NOT converged. To continue the calculation regardless,   *
 *    |             please set the keyword IGNORE_CONVERGENCE_FAILURE.         *
 *  O/|                                                                        *
 * /| |                                                                        *
 * / \                                                            qs_scf.F:611 *
 *******************************************************************************


 ===== Routine Calling Stack ===== 

            3 scf_env_do_scf
            2 qs_energies
            1 CP2K

 *******************************************************************************
 *   ___                                                                       *
 *  /   \                                                                      *
 * [ABORT]                                                                     *
 *  \___/     SCF run NOT converged. To continue the calculation regardless,   *
 *    |             please set the keyword IGNORE_CONVERGENCE_FAILURE.         *
 *  O/|                                                                        *
 * /| |                                                                        *
 * / \                                                            qs_scf.F:611 *
 *******************************************************************************


 ===== Routine Calling Stack ===== 

            3 scf_env_do_scf
            2 qs_energies
            1 CP2K

 *******************************************************************************
 *   ___                                                                       *
 *  /   \                                                                      *
 * [ABORT]                                                                     *
 *  \___/     SCF run NOT converged. To continue the calculation regardless,   *
 *    |             please set the keyword IGNORE_CONVERGENCE_FAILURE.         *
 *  O/|                                                                        *
 * /| |                                                                        *
 * / \                                                            qs_scf.F:611 *
 *******************************************************************************


 ===== Routine Calling Stack ===== 

            3 scf_env_do_scf
            2 qs_energies
            1 CP2K
