 DBCSR| CPU Multiplication driver                                           BLAS (U)
 DBCSR| Multrec recursion limit                                              512 (U)
 DBCSR| Multiplication stack size                                           1000 (D)
 DBCSR| Maximum elements for images                                    UNLIMITED (U)
 DBCSR| Multiplicative factor virtual images                                   1 (U)
 DBCSR| Use multiplication densification                                       T (D)
 DBCSR| Multiplication size stacks                                             3 (U)
 DBCSR| Use memory pool for CPU allocation                                     F (U)
 DBCSR| Number of 3D layers                                               SINGLE (U)
 DBCSR| Use MPI memory allocation                                              F (U)
 DBCSR| Use RMA algorithm                                                      F (U)
 DBCSR| Use Communication thread                                               T (U)
 DBCSR| Communication thread load                                             75 (D)
 DBCSR| MPI: My process id                                                     0
 DBCSR| MPI: Number of processes                                              24
 DBCSR| OMP: Current number of threads                                         4
 DBCSR| OMP: Max number of threads                                             4
 DBCSR| Split modifier for TAS multiplication algorithm                  1.0E+00 (U)


  **** **** ******  **  PROGRAM STARTED AT               2025-02-26 14:56:40.703
 ***** ** ***  *** **   PROGRAM STARTED ON                          i02r05c04s02
 **    ****   ******    PROGRAM STARTED BY                               di38fab
 ***** **    ** ** **   PROGRAM PROCESS ID                               1289604
  **** **  *******  **  PROGRAM STARTED IN /hppfs/scratch/04/di38fab/05_MOL/W4-1
                                           1/b2/SZV

 CP2K| version string:                 CP2K version 2025.1 (Development Version)
 CP2K| source code revision number:                                  git:47877ba
 CP2K| cp2kflags: omp libint fftw3 libxc parallel scalapack max_contr=4         
 CP2K| is freely available from                            https://www.cp2k.org/
 CP2K| Program compiled at                          Thu Feb 20 16:00:34 CET 2025
 CP2K| Program compiled on                                               login04
 CP2K| Program compiled for                                        Supermuc-foss
 CP2K| Data directory path          /hppfs/work/pn36zo/di38fab/newcp2k/cp2k/data
 CP2K| Input file name                                                    GW.inp

 GLOBAL| Force Environment number                                              1
 GLOBAL| Basis set file name            /hppfs/scratch/04/di38fab/04_TMD/BASIS_A
 GLOBAL| Potential file name            /hppfs/work/pn36zo/di38fab/cp2k/data/ALL
 GLOBAL| MM Potential file name                                     MM_POTENTIAL
 GLOBAL| Coordinate file name                                      __STD_INPUT__
 GLOBAL| Method name                                                        CP2K
 GLOBAL| Project name                                                       MoS2
 GLOBAL| Run type                                                         ENERGY
 GLOBAL| FFT library                                                       FFTW3
 GLOBAL| Diagonalization library                                       ScaLAPACK
 GLOBAL| DGEMM library                                                      BLAS
 GLOBAL| Orthonormality check for eigenvectors                          DISABLED
 GLOBAL| Matrix multiplication library                                 ScaLAPACK
 GLOBAL| All-to-all communication in single precision                          F
 GLOBAL| FFTs using library dependent lengths                                  F
 GLOBAL| Grid backend                                                       AUTO
 GLOBAL| Global print level                                               MEDIUM
 GLOBAL| MPI I/O enabled                                                       T
 GLOBAL| Total number of message passing processes                            24
 GLOBAL| Number of threads for this process                                    4
 GLOBAL| This output is from process                                           0
 GLOBAL| OpenMP stack size per thread (OMP_STACKSIZE)                    default
 GLOBAL| CPU model name             Intel(R) Xeon(R) Platinum 8174 CPU @ 3.10GHz

 MEMORY| system memory details [Kb]
 MEMORY|                        rank 0           min           max       average
 MEMORY| MemTotal             98436708      98436664      98436708      98436686
 MEMORY| MemFree              84075008      84057824      84075008      84066416
 MEMORY| Buffers                     0             0             0             0
 MEMORY| Cached                2395944       2382728       2395944       2389336
 MEMORY| Slab                  1243172       1207192       1243172       1225182
 MEMORY| SReclaimable           272624        259256        272624        265940
 MEMORY| MemLikelyFree        86743576      86699808      86743576      86721692


 *** Fundamental physical constants (SI units) ***

 *** Literature: B. J. Mohr and B. N. Taylor,
 ***             CODATA recommended values of the fundamental physical
 ***             constants: 2006, Web Version 5.1
 ***             http://physics.nist.gov/constants

 Speed of light in vacuum [m/s]                             2.99792458000000E+08
 Magnetic constant or permeability of vacuum [N/A**2]       1.25663706143592E-06
 Electric constant or permittivity of vacuum [F/m]          8.85418781762039E-12
 Planck constant (h) [J*s]                                  6.62606896000000E-34
 Planck constant (h-bar) [J*s]                              1.05457162825177E-34
 Elementary charge [C]                                      1.60217648700000E-19
 Electron mass [kg]                                         9.10938215000000E-31
 Electron g factor [ ]                                     -2.00231930436220E+00
 Proton mass [kg]                                           1.67262163700000E-27
 Fine-structure constant                                    7.29735253760000E-03
 Rydberg constant [1/m]                                     1.09737315685270E+07
 Avogadro constant [1/mol]                                  6.02214179000000E+23
 Boltzmann constant [J/K]                                   1.38065040000000E-23
 Atomic mass unit [kg]                                      1.66053878200000E-27
 Bohr radius [m]                                            5.29177208590000E-11

 *** Conversion factors ***

 [u] -> [a.u.]                                              1.82288848426455E+03
 [Angstrom] -> [Bohr] = [a.u.]                              1.88972613288564E+00
 [a.u.] = [Bohr] -> [Angstrom]                              5.29177208590000E-01
 [a.u.] -> [s]                                              2.41888432650478E-17
 [a.u.] -> [fs]                                             2.41888432650478E-02
 [a.u.] -> [J]                                              4.35974393937059E-18
 [a.u.] -> [N]                                              8.23872205491840E-08
 [a.u.] -> [K]                                              3.15774647902944E+05
 [a.u.] -> [kJ/mol]                                         2.62549961709828E+03
 [a.u.] -> [kcal/mol]                                       6.27509468713739E+02
 [a.u.] -> [Pa]                                             2.94210107994716E+13
 [a.u.] -> [bar]                                            2.94210107994716E+08
 [a.u.] -> [atm]                                            2.90362800883016E+08
 [a.u.] -> [eV]                                             2.72113838565563E+01
 [a.u.] -> [Hz]                                             6.57968392072181E+15
 [a.u.] -> [1/cm] (wave numbers)                            2.19474631370540E+05
 [a.u./Bohr**2] -> [1/cm]                                   5.14048714338585E+03
 

 CELL_TOP| Volume [angstrom^3]:                                     27000.000000
 CELL_TOP| Vector a [angstrom    30.000     0.000     0.000   |a| =    30.000000
 CELL_TOP| Vector b [angstrom     0.000    30.000     0.000   |b| =    30.000000
 CELL_TOP| Vector c [angstrom     0.000     0.000    30.000   |c| =    30.000000
 CELL_TOP| Angle (b,c), alpha [degree]:                                90.000000
 CELL_TOP| Angle (a,c), beta  [degree]:                                90.000000
 CELL_TOP| Angle (a,b), gamma [degree]:                                90.000000
 CELL_TOP| Numerically orthorhombic:                                         YES
 CELL_TOP| Periodicity                                                      NONE

 GENERATE|  Preliminary Number of Bonds generated:                             0
 GENERATE|  Achieved consistency in connectivity generation.

 CELL| Volume [angstrom^3]:                                         27000.000000
 CELL| Vector a [angstrom]:      30.000     0.000     0.000   |a| =    30.000000
 CELL| Vector b [angstrom]:       0.000    30.000     0.000   |b| =    30.000000
 CELL| Vector c [angstrom]:       0.000     0.000    30.000   |c| =    30.000000
 CELL| Angle (b,c), alpha [degree]:                                    90.000000
 CELL| Angle (a,c), beta  [degree]:                                    90.000000
 CELL| Angle (a,b), gamma [degree]:                                    90.000000
 CELL| Numerically orthorhombic:                                             YES
 CELL| Periodicity                                                          NONE

 CELL_REF| Volume [angstrom^3]:                                     27000.000000
 CELL_REF| Vector a [angstrom    30.000     0.000     0.000   |a| =    30.000000
 CELL_REF| Vector b [angstrom     0.000    30.000     0.000   |b| =    30.000000
 CELL_REF| Vector c [angstrom     0.000     0.000    30.000   |c| =    30.000000
 CELL_REF| Angle (b,c), alpha [degree]:                                90.000000
 CELL_REF| Angle (a,c), beta  [degree]:                                90.000000
 CELL_REF| Angle (a,b), gamma [degree]:                                90.000000
 CELL_REF| Numerically orthorhombic:                                         YES
 CELL_REF| Periodicity                                                      NONE

 *******************************************************************************
                                    Kpoints
 *******************************************************************************
 BRILLOUIN|                                              Gamma-point calculation
 BRILLOUIN| K-Point point group symmetrization                               OFF
 BRILLOUIN| Wavefunction type                                            COMPLEX
 *******************************************************************************

 *******************************************************************************
 *******************************************************************************
 **                                                                           **
 **     #####                         ##              ##                      **
 **    ##   ##            ##          ##              ##                      **
 **   ##     ##                       ##            ######                    **
 **   ##     ##  ##   ##  ##   #####  ##  ##   ####   ##    #####    #####    **
 **   ##     ##  ##   ##  ##  ##      ## ##   ##      ##   ##   ##  ##   ##   **
 **   ##  ## ##  ##   ##  ##  ##      ####     ###    ##   ######   ######    **
 **    ##  ###   ##   ##  ##  ##      ## ##      ##   ##   ##       ##        **
 **     #######   #####   ##   #####  ##  ##  ####    ##    #####   ##        **
 **           ##                                                    ##        **
 **                                                                           **
 **                                                ... make the atoms dance   **
 **                                                                           **
 **            Copyright (C) by CP2K developers group (2000-2025)             **
 **                      J. Chem. Phys. 152, 194103 (2020)                    **
 **                                                                           **
 *******************************************************************************

 DFT| Spin restricted Kohn-Sham (RKS) calculation                            RKS
 DFT| Multiplicity                                                             1
 DFT| Number of spin states                                                    1
 DFT| Charge                                                                   0
 DFT| Self-interaction correction (SIC)                                       NO
 DFT| Cutoffs: density                                              1.000000E-10
 DFT|          gradient                                             1.000000E-10
 DFT|          tau                                                  1.000000E-10
 DFT|          cutoff_smoothing_range                               0.000000E+00
 DFT| XC density smoothing                                                  NONE
 DFT| XC derivatives                                                          PW

 FUNCTIONAL| PBE:
 FUNCTIONAL| J.P.Perdew, K.Burke, M.Ernzerhof, Phys. Rev. Letter, vol. 77, n 18,
 FUNCTIONAL|  pp. 3865-3868, (1996) {spin unpolarized}                          


 QS| Method:                                                                GAPW
 QS| Density plane wave grid type                        NON-SPHERICAL FULLSPACE
 QS| Number of grid levels:                                                    4
 QS| Density cutoff [a.u.]:                                                250.0
 QS| Multi grid cutoff [a.u.]: 1) grid level                               250.0
 QS|                           2) grid level                                83.3
 QS|                           3) grid level                                27.8
 QS|                           4) grid level                                 9.3
 QS| Grid level progression factor:                                          3.0
 QS| Relative density cutoff [a.u.]:                                        50.0
 QS| Interaction thresholds: eps_pgf_orb:                                1.0E-12
 QS|                         eps_filter_matrix:                          0.0E+00
 QS|                         eps_core_charge:                            1.0E-14
 QS|                         eps_rho_gspace:                             1.0E-12
 QS|                         eps_rho_rspace:                             1.0E-12
 QS|                         eps_gvg_rspace:                             1.0E-06
 QS|                         eps_ppl:                                    1.0E-02
 QS|                         eps_ppnl:                                   1.0E-08
 QS| GAPW|      One center basis from orbital basis primitives
 QS| GAPW|                   eps_fit:                                    1.0E-04
 QS| GAPW|                   eps_iso:                                    1.0E-12
 QS| GAPW|                   eps_svd:                                    1.0E-08
 QS| GAPW|                   eps_cpc:                                    1.0E-12
 QS| GAPW|   atom-r-grid: quadrature:                                     GC_LOG
 QS| GAPW|      atom-s-grid:  max l :                                          4
 QS| GAPW|      max_l_rho0 :                                                   2


 ATOMIC KIND INFORMATION

  1. Atomic kind: B                                     Number of atoms:       2

     Orbital Basis Set                                         aug-SZV-MOLOPT-ae

       Number of orbital shell sets:                                           2
       Number of orbital shells:                                               6
       Number of primitive Cartesian functions:                               13
       Number of Cartesian basis functions:                                   15
       Number of spherical basis functions:                                   14
       Norm type:                                                              2

       Normalised Cartesian orbitals:

                        Set   Shell   Orbital            Exponent    Coefficient

                          1       1    1s                0.109280       0.032606
                                                         0.155613       0.000000
                                                         0.238409       0.144712
                                                         0.548949       0.113742
                                                         1.426820      -0.031435
                                                         4.590809      -0.105038
                                                        23.194561      -0.099829

                          1       2    2s                0.109280      -0.049098
                                                         0.155613      -0.119813
                                                         0.238409      -0.025283
                                                         0.548949       0.056653
                                                         1.426820       0.132404
                                                         4.590809       0.000000
                                                        23.194561       0.000000

                          1       3    2px               0.109280       0.009109
                                                         0.155613       0.000000
                                                         0.238409       0.101125
                                                         0.548949       0.281559
                                                         1.426820       0.386539
                                                         4.590809       0.360915
                                                        23.194561       0.272788
                          1       3    2py               0.109280       0.009109
                                                         0.155613       0.000000
                                                         0.238409       0.101125
                                                         0.548949       0.281559
                                                         1.426820       0.386539
                                                         4.590809       0.360915
                                                        23.194561       0.272788
                          1       3    2pz               0.109280       0.009109
                                                         0.155613       0.000000
                                                         0.238409       0.101125
                                                         0.548949       0.281559
                                                         1.426820       0.386539
                                                         4.590809       0.360915
                                                        23.194561       0.272788

                          1       4    3px               0.109280       0.062233
                                                         0.155613       0.035668
                                                         0.238409       0.015304
                                                         0.548949      -0.003054
                                                         1.426820       0.021875
                                                         4.590809       0.000000
                                                        23.194561       0.000000
                          1       4    3py               0.109280       0.062233
                                                         0.155613       0.035668
                                                         0.238409       0.015304
                                                         0.548949      -0.003054
                                                         1.426820       0.021875
                                                         4.590809       0.000000
                                                        23.194561       0.000000
                          1       4    3pz               0.109280       0.062233
                                                         0.155613       0.035668
                                                         0.238409       0.015304
                                                         0.548949      -0.003054
                                                         1.426820       0.021875
                                                         4.590809       0.000000
                                                        23.194561       0.000000

                          1       5    3dx2              0.109280       0.000986
                                                         0.155613       0.002022
                                                         0.238409       0.109458
                                                         0.548949       0.095099
                                                         1.426820       0.028232
                                                         4.590809       0.000000
                                                        23.194561       0.000000
                          1       5    3dxy              0.109280       0.001708
                                                         0.155613       0.003503
                                                         0.238409       0.189586
                                                         0.548949       0.164717
                                                         1.426820       0.048900
                                                         4.590809       0.000000
                                                        23.194561       0.000000
                          1       5    3dxz              0.109280       0.001708
                                                         0.155613       0.003503
                                                         0.238409       0.189586
                                                         0.548949       0.164717
                                                         1.426820       0.048900
                                                         4.590809       0.000000
                                                        23.194561       0.000000
                          1       5    3dy2              0.109280       0.000986
                                                         0.155613       0.002022
                                                         0.238409       0.109458
                                                         0.548949       0.095099
                                                         1.426820       0.028232
                                                         4.590809       0.000000
                                                        23.194561       0.000000
                          1       5    3dyz              0.109280       0.001708
                                                         0.155613       0.003503
                                                         0.238409       0.189586
                                                         0.548949       0.164717
                                                         1.426820       0.048900
                                                         4.590809       0.000000
                                                        23.194561       0.000000
                          1       5    3dz2              0.109280       0.000986
                                                         0.155613       0.002022
                                                         0.238409       0.109458
                                                         0.548949       0.095099
                                                         1.426820       0.028232
                                                         4.590809       0.000000
                                                        23.194561       0.000000

                          2       1    1s              506.011837       0.696781
                                                        92.776716       1.051665
                                                        25.955582       1.381280
                                                         8.916443       1.362748
                                                         3.462516       0.753460
                                                         1.426055       0.121219

     RI Auxiliary Basis Set             RI_aug-SZV-MOLOPT-ae_N_RI_025_s_p_d_f_g_

       Number of orbital shell sets:                                           9
       Number of orbital shells:                                               9
       Number of primitive Cartesian functions:                                9
       Number of Cartesian basis functions:                                   29
       Number of spherical basis functions:                                   25
       Norm type:                                                              2

       Normalised Cartesian orbitals:

                        Set   Shell   Orbital            Exponent    Coefficient

                          1       1    1s                0.250341       0.252237

                          2       1    5px               0.273284       0.281648
                          2       1    5py               0.273284       0.281648
                          2       1    5pz               0.273284       0.281648

                          3       1    8dx2              0.455299       0.415363
                          3       1    8dxy              0.455299       0.719430
                          3       1    8dxz              0.455299       0.719430
                          3       1    8dy2              0.455299       0.415363
                          3       1    8dyz              0.455299       0.719430
                          3       1    8dz2              0.455299       0.415363

                          4       1    9fx3              0.675974       0.609953
                          4       1    9fx2y             0.675974       1.363897
                          4       1    9fx2z             0.675974       1.363897
                          4       1    9fxy2             0.675974       1.363897
                          4       1    9fxyz             0.675974       2.362339
                          4       1    9fxz2             0.675974       1.363897
                          4       1    9fy3              0.675974       0.609953
                          4       1    9fy2z             0.675974       1.363897
                          4       1    9fyz2             0.675974       1.363897
                          4       1    9fz3              0.675974       0.609953

                          5       1    6px               0.737183       0.973664
                          5       1    6py               0.737183       0.973664
                          5       1    6pz               0.737183       0.973664

                          6       1    2s                0.787813       0.595974

                          7       1    3s                5.974522       2.723563

                          8       1    7px               7.247300      16.949636
                          8       1    7py               7.247300      16.949636
                          8       1    7pz               7.247300      16.949636

                          9       1    4s               47.432595      12.881539

       Atomic covalent radius [Angstrom]:                                  0.820

       Atomic van der Waals radius [Angstrom]:                             1.920

     The atoms of this atomic kind are PAW atoms (GAPW):
       Hard Gaussian function radius:                                      1.512
       Rho0 radius:                                                        1.512
       Maximum GTO radius used for PAW projector construction:            24.566

     GAPW Soft Basis Set                                  aug-SZV-MOLOPT-ae_soft

       Number of orbital shell sets:                                           2
       Number of orbital shells:                                               6
       Number of primitive Cartesian functions:                                7
       Number of Cartesian basis functions:                                   15
       Number of spherical basis functions:                                   14
       Norm type:                                                              2

       Normalised Cartesian orbitals:

                        Set   Shell   Orbital            Exponent    Coefficient

                          1       1    1s                0.109280       0.032606
                                                         0.155613       0.000000
                                                         0.238409       0.144712
                                                         0.548949       0.113742
                                                         1.426820      -0.031435

                          1       2    2s                0.109280      -0.049098
                                                         0.155613      -0.119813
                                                         0.238409      -0.025283
                                                         0.548949       0.056653
                                                         1.426820       0.132404

                          1       3    2px               0.109280       0.009109
                                                         0.155613       0.000000
                                                         0.238409       0.101125
                                                         0.548949       0.281559
                                                         1.426820       0.386539
                          1       3    2py               0.109280       0.009109
                                                         0.155613       0.000000
                                                         0.238409       0.101125
                                                         0.548949       0.281559
                                                         1.426820       0.386539
                          1       3    2pz               0.109280       0.009109
                                                         0.155613       0.000000
                                                         0.238409       0.101125
                                                         0.548949       0.281559
                                                         1.426820       0.386539

                          1       4    3px               0.109280       0.062233
                                                         0.155613       0.035668
                                                         0.238409       0.015304
                                                         0.548949      -0.003054
                                                         1.426820       0.021875
                          1       4    3py               0.109280       0.062233
                                                         0.155613       0.035668
                                                         0.238409       0.015304
                                                         0.548949      -0.003054
                                                         1.426820       0.021875
                          1       4    3pz               0.109280       0.062233
                                                         0.155613       0.035668
                                                         0.238409       0.015304
                                                         0.548949      -0.003054
                                                         1.426820       0.021875

                          1       5    3dx2              0.109280       0.000986
                                                         0.155613       0.002022
                                                         0.238409       0.109458
                                                         0.548949       0.095099
                                                         1.426820       0.028232
                          1       5    3dxy              0.109280       0.001708
                                                         0.155613       0.003503
                                                         0.238409       0.189586
                                                         0.548949       0.164717
                                                         1.426820       0.048900
                          1       5    3dxz              0.109280       0.001708
                                                         0.155613       0.003503
                                                         0.238409       0.189586
                                                         0.548949       0.164717
                                                         1.426820       0.048900
                          1       5    3dy2              0.109280       0.000986
                                                         0.155613       0.002022
                                                         0.238409       0.109458
                                                         0.548949       0.095099
                                                         1.426820       0.028232
                          1       5    3dyz              0.109280       0.001708
                                                         0.155613       0.003503
                                                         0.238409       0.189586
                                                         0.548949       0.164717
                                                         1.426820       0.048900
                          1       5    3dz2              0.109280       0.000986
                                                         0.155613       0.002022
                                                         0.238409       0.109458
                                                         0.548949       0.095099
                                                         1.426820       0.028232

                          2       1    1s                3.462516       0.753460
                                                         1.426055       0.121219

     AE Potential information for                                            ALL

       Description:                                       All-electron potential
                                          Krack, Parrinello, PCCP 2, 2105 (2000)

       Gaussian exponent of the core charge distribution:               2.655410
       Electronic configuration (s p d ...):                           4   1   0


 MOLECULE KIND INFORMATION


 All atoms are their own molecule, skipping detailed information


 TOTAL NUMBERS AND MAXIMUM NUMBERS

  Total number of            - Atomic kinds:                                   1
                             - Atoms:                                          2
                             - Shell sets:                                     4
                             - Shells:                                        12
                             - Primitive Cartesian functions:                 26
                             - Cartesian basis functions:                     30
                             - Spherical basis functions:                     28

  Maximum angular momentum of the orbital basis functions:                     2


 MODULE QUICKSTEP: ATOMIC COORDINATES IN ANGSTROM

   Atom Kind Element         X             Y             Z       Z(eff)     Mass
      1    1 B     5     15.793777     15.000000     15.000000   5.0000  10.8110
      2    1 B     5     14.206223     15.000000     15.000000   5.0000  10.8110



 SCF PARAMETERS         Density guess:                                    ATOMIC
                        --------------------------------------------------------
                        max_scf:                                             500
                        max_scf_history:                                       0
                        max_diis:                                              4
                        --------------------------------------------------------
                        eps_scf:                                        1.00E-09
                        eps_scf_history:                                0.00E+00
                        eps_diis:                                       1.00E-01
                        eps_eigval:                                     1.00E-05
                        --------------------------------------------------------
                        level_shift [a.u.]:                             0.000000
                        added MOs                                        23    0
                        --------------------------------------------------------
                        Mixing method:                            BROYDEN_MIXING
                                                charge density mixing in g-space
                        --------------------------------------------------------
                        No outer SCF

 PW_GRID| Information for grid number                                          1
 PW_GRID| Grid distributed over                                    24 processors
 PW_GRID| Real space group dimensions                                    24    1
 PW_GRID| the grid is blocked:                                                NO
 PW_GRID| Cutoff [a.u.]                                                    250.0
 PW_GRID| spherical cutoff:                                                   NO
 PW_GRID|   Bounds   1           -202     202                Points:         405
 PW_GRID|   Bounds   2           -202     202                Points:         405
 PW_GRID|   Bounds   3           -202     202                Points:         405
 PW_GRID| Volume element (a.u.^3)  0.2743E-02     Volume (a.u.^3)    182205.0337
 PW_GRID| Grid span                                                    FULLSPACE
 PW_GRID|   Distribution                         Average         Max         Min
 PW_GRID|   G-Vectors                          2767921.9     2768175     2767770
 PW_GRID|   G-Rays                                6834.4        6835        6834
 PW_GRID|   Real Space Points                  2767921.9     2788425     2624400

 PW_GRID| Information for grid number                                          2
 PW_GRID| Number of the reference grid                                         1
 PW_GRID| Grid distributed over                                    24 processors
 PW_GRID| Real space group dimensions                                    24    1
 PW_GRID| the grid is blocked:                                                NO
 PW_GRID| Cutoff [a.u.]                                                     83.3
 PW_GRID| spherical cutoff:                                                   NO
 PW_GRID|   Bounds   1           -120     119                Points:         240
 PW_GRID|   Bounds   2           -120     119                Points:         240
 PW_GRID|   Bounds   3           -120     119                Points:         240
 PW_GRID| Volume element (a.u.^3)  0.1318E-01     Volume (a.u.^3)    182205.0337
 PW_GRID| Grid span                                                    FULLSPACE
 PW_GRID|   Distribution                         Average         Max         Min
 PW_GRID|   G-Vectors                           576000.0      576240      575760
 PW_GRID|   G-Rays                                2400.0        2401        2399
 PW_GRID|   Real Space Points                   576000.0      576000      576000

 PW_GRID| Information for grid number                                          3
 PW_GRID| Number of the reference grid                                         1
 PW_GRID| Grid distributed over                                    24 processors
 PW_GRID| Real space group dimensions                                    24    1
 PW_GRID| the grid is blocked:                                                NO
 PW_GRID| Cutoff [a.u.]                                                     27.8
 PW_GRID| spherical cutoff:                                                   NO
 PW_GRID|   Bounds   1            -67      67                Points:         135
 PW_GRID|   Bounds   2            -67      67                Points:         135
 PW_GRID|   Bounds   3            -67      67                Points:         135
 PW_GRID| Volume element (a.u.^3)  0.7406E-01     Volume (a.u.^3)    182205.0337
 PW_GRID| Grid span                                                    FULLSPACE
 PW_GRID|   Distribution                         Average         Max         Min
 PW_GRID|   G-Vectors                           102515.6      102735      102330
 PW_GRID|   G-Rays                                 759.4         761         758
 PW_GRID|   Real Space Points                   102515.6      109350       91125

 PW_GRID| Information for grid number                                          4
 PW_GRID| Number of the reference grid                                         1
 PW_GRID| Grid distributed over                                    24 processors
 PW_GRID| Real space group dimensions                                    24    1
 PW_GRID| the grid is blocked:                                                NO
 PW_GRID| Cutoff [a.u.]                                                      9.3
 PW_GRID| spherical cutoff:                                                   NO
 PW_GRID|   Bounds   1            -40      39                Points:          80
 PW_GRID|   Bounds   2            -40      39                Points:          80
 PW_GRID|   Bounds   3            -40      39                Points:          80
 PW_GRID| Volume element (a.u.^3)  0.3559         Volume (a.u.^3)    182205.0337
 PW_GRID| Grid span                                                    FULLSPACE
 PW_GRID|   Distribution                         Average         Max         Min
 PW_GRID|   G-Vectors                            21333.3       21360       21280
 PW_GRID|   G-Rays                                 266.7         267         266
 PW_GRID|   Real Space Points                    21333.3       25600       19200

 POISSON| Solver                                                         WAVELET
 POISSON| Wavelet| Scaling function                                           40
 POISSON| Periodicity                                                       NONE

 RS_GRID| Information for grid number                                          1
 RS_GRID|   Bounds   1           -202     202                Points:         405
 RS_GRID|   Bounds   2           -202     202                Points:         405
 RS_GRID|   Bounds   3           -202     202                Points:         405
 RS_GRID| Real space distribution over                                  4 groups
 RS_GRID| Real space distribution along direction                              2
 RS_GRID| Border size                                                         32
 RS_GRID| Real space distribution over                                  6 groups
 RS_GRID| Real space distribution along direction                              3
 RS_GRID| Border size                                                         32
 RS_GRID|   Distribution                         Average         Max         Min
 RS_GRID|   Planes                                 165.2         166         165
 RS_GRID|   Distribution                         Average         Max         Min
 RS_GRID|   Planes                                 131.5         132         131

 RS_GRID| Information for grid number                                          2
 RS_GRID|   Bounds   1           -120     119                Points:         240
 RS_GRID|   Bounds   2           -120     119                Points:         240
 RS_GRID|   Bounds   3           -120     119                Points:         240
 RS_GRID| Real space distribution over                                  4 groups
 RS_GRID| Real space distribution along direction                              2
 RS_GRID| Border size                                                         34
 RS_GRID| Real space distribution over                                  6 groups
 RS_GRID| Real space distribution along direction                              3
 RS_GRID| Border size                                                         34
 RS_GRID|   Distribution                         Average         Max         Min
 RS_GRID|   Planes                                 128.0         128         128
 RS_GRID|   Distribution                         Average         Max         Min
 RS_GRID|   Planes                                 108.0         108         108

 RS_GRID| Information for grid number                                          3
 RS_GRID|   Bounds   1            -67      67                Points:         135
 RS_GRID|   Bounds   2            -67      67                Points:         135
 RS_GRID|   Bounds   3            -67      67                Points:         135
 RS_GRID| Real space fully replicated
 RS_GRID| Group size                                                           1

 RS_GRID| Information for grid number                                          4
 RS_GRID|   Bounds   1            -40      39                Points:          80
 RS_GRID|   Bounds   2            -40      39                Points:          80
 RS_GRID|   Bounds   3            -40      39                Points:          80
 RS_GRID| Real space fully replicated
 RS_GRID| Group size                                                           1
 
 RI-RPA| using GPW style
 

 Number of electrons:                                                         10
 Number of occupied orbitals:                                                  5
 Number of molecular orbitals:                                                28

 Number of orbital functions:                                                 28
 Number of independent orbital functions:                                     28

 Extrapolation method: initial_guess

 Atomic guess: The first density matrix is obtained in terms of atomic orbitals
               and electronic configurations assigned to each atomic kind

 Guess for atomic kind: B

 Electronic structure
    Total number of core electrons                                          0.00
    Total number of valence electrons                                       5.00
    Total number of electrons                                               5.00
    Multiplicity                                                   not specified
    S      2.00  2.00
    P      1.00


 *******************************************************************************
                  Iteration          Convergence                     Energy [au]
 *******************************************************************************
                          1        0.612489E-01                 -24.304439508901
                          2        0.220484E-01                 -24.305945213911
                          3        0.367076E-03                 -24.306247196960
                          4        0.456899E-05                 -24.306247340970
                          5        0.241868E-07                 -24.306247340986

 Energy components [Hartree]           Total Energy ::          -24.306247340986
                                        Band Energy ::          -13.825803348850
                                     Kinetic Energy ::           23.970530113188
                                   Potential Energy ::          -48.276777454174
                                      Virial (-V/T) ::            2.014005415242
                                        Core Energy ::          -32.361048727638
                                          XC Energy ::           -3.546375173816
                                     Coulomb Energy ::           11.601176560468

 Orbital energies  State     L     Occupation   Energy[a.u.]          Energy[eV]

                       1     0          2.000      -6.531739         -177.737651
                       2     0          2.000      -0.324835           -8.839199

                       1     1          1.000      -0.112657           -3.065543


 Total Electron Density at R=0:                                        58.671969
 Re-scaling the density matrix to get the right number of electrons
                  # Electrons              Trace(P)               Scaling factor
                           10                10.000                        1.000


 SCF WAVEFUNCTION OPTIMIZATION

  Step     Update method      Time    Convergence         Total energy    Change
  ------------------------------------------------------------------------------
     1 NoMix/Diag. 0.10E+00    5.7     0.40078708       -49.3910249806 -4.94E+01
     2 Broy./Diag. 0.10E+00    4.6     0.44935048       -49.0285507750  3.62E-01
     3 Broy./Diag. 0.10E+00    4.8     0.44542099       -49.0634319776 -3.49E-02
     4 Broy./Diag. 0.10E+00    4.7     0.44463089       -49.0699844871 -6.55E-03
     5 Broy./Diag. 0.10E+00    4.8     0.01727135       -49.0885095803 -1.85E-02
     6 Broy./Diag. 0.10E+00    4.8     0.43152092       -49.1151884320 -2.67E-02
     7 Broy./Diag. 0.10E+00    4.9     0.41798449       -49.1592602069 -4.41E-02
     8 Broy./Diag. 0.10E+00    5.0     0.40839895       -49.1913676866 -3.21E-02
     9 Broy./Diag. 0.10E+00    5.2     0.36906372       -49.1938683656 -2.50E-03
    10 Broy./Diag. 0.10E+00    5.1     0.33113210       -49.1966883355 -2.82E-03
    11 Broy./Diag. 0.10E+00    5.2     0.34545627       -49.1972260506 -5.38E-04
    12 Broy./Diag. 0.10E+00    5.2     0.40162705       -49.1997257152 -2.50E-03
    13 Broy./Diag. 0.10E+00    5.3     0.41616926       -49.2005117481 -7.86E-04
    14 Broy./Diag. 0.10E+00    5.2     0.43210157       -49.2033264321 -2.81E-03
    15 Broy./Diag. 0.10E+00    5.2     0.42356902       -49.2034600101 -1.34E-04
    16 Broy./Diag. 0.10E+00    5.2     0.42460604       -49.2046669689 -1.21E-03
    17 Broy./Diag. 0.10E+00    5.2     0.41106854       -49.2062657673 -1.60E-03
    18 Broy./Diag. 0.10E+00    5.1     0.40978962       -49.2081798270 -1.91E-03
    19 Broy./Diag. 0.10E+00    5.2     0.39768715       -49.2099564726 -1.78E-03
    20 Broy./Diag. 0.10E+00    5.2     0.39776375       -49.2117711490 -1.81E-03
    21 Broy./Diag. 0.10E+00    5.2     0.38941474       -49.2135565614 -1.79E-03
    22 Broy./Diag. 0.10E+00    5.2     0.38985350       -49.2150021037 -1.45E-03
    23 Broy./Diag. 0.10E+00    5.2     0.39067722       -49.2158466462 -8.45E-04
    24 Broy./Diag. 0.10E+00    5.2     0.39059940       -49.2161530830 -3.06E-04
    25 Broy./Diag. 0.10E+00    5.3     0.41149946       -49.2160486576  1.04E-04
    26 Broy./Diag. 0.10E+00    5.2     0.40905452       -49.2165060438 -4.57E-04
    27 Broy./Diag. 0.10E+00    5.2     0.42192069       -49.2166514650 -1.45E-04
    28 Broy./Diag. 0.10E+00    5.3     0.42316566       -49.2174062538 -7.55E-04
    29 Broy./Diag. 0.10E+00    5.2     0.42903995       -49.2177736980 -3.67E-04
    30 Broy./Diag. 0.10E+00    5.2     0.43030253       -49.2184727977 -6.99E-04
    31 Broy./Diag. 0.10E+00    5.2     0.43230303       -49.2187775048 -3.05E-04
    32 Broy./Diag. 0.10E+00    5.2     0.43133805       -49.2194908325 -7.13E-04
    33 Broy./Diag. 0.10E+00    5.4     0.43054618       -49.2198220634 -3.31E-04
    34 Broy./Diag. 0.10E+00    5.2     0.42778480       -49.2205141188 -6.92E-04
    35 Broy./Diag. 0.10E+00    5.2     0.42603859       -49.2207916623 -2.78E-04
    36 Broy./Diag. 0.10E+00    5.2     0.42291678       -49.2214465095 -6.55E-04
    37 Broy./Diag. 0.10E+00    5.2     0.42083152       -49.2216962372 -2.50E-04
    38 Broy./Diag. 0.10E+00    5.2     0.41762974       -49.2223098553 -6.14E-04
    39 Broy./Diag. 0.10E+00    5.2     0.41525762       -49.2225456976 -2.36E-04
    40 Broy./Diag. 0.10E+00    5.2     0.41191066       -49.2231141225 -5.68E-04
    41 Broy./Diag. 0.10E+00    5.2     0.40879287       -49.2233325770 -2.18E-04
    42 Broy./Diag. 0.10E+00    5.3     0.40499302       -49.2238522131 -5.20E-04
    43 Broy./Diag. 0.10E+00    5.2     0.40065233       -49.2240671131 -2.15E-04
    44 Broy./Diag. 0.10E+00    5.2     0.39594336       -49.2245433537 -4.76E-04
    45 Broy./Diag. 0.10E+00    5.2     0.39042576       -49.2247513777 -2.08E-04
    46 Broy./Diag. 0.10E+00    5.2     0.38461457       -49.2251926988 -4.41E-04
    47 Broy./Diag. 0.10E+00    5.2     0.37816286       -49.2253919331 -1.99E-04
    48 Broy./Diag. 0.10E+00    5.3     0.37143515       -49.2258040931 -4.12E-04
    49 Broy./Diag. 0.10E+00    5.3     0.36437189       -49.2259932014 -1.89E-04
    50 Broy./Diag. 0.10E+00    5.2     0.35702189       -49.2263804569 -3.87E-04
    51 Broy./Diag. 0.10E+00    5.2     0.34955636       -49.2265580312 -1.78E-04
    52 Broy./Diag. 0.10E+00    5.3     0.34176595       -49.2269223088 -3.64E-04
    53 Broy./Diag. 0.10E+00    5.2     0.33391810       -49.2270890895 -1.67E-04
    54 Broy./Diag. 0.10E+00    5.2     0.32571225       -49.2274314651 -3.42E-04
    55 Broy./Diag. 0.10E+00    5.2     0.31738619       -49.2275882037 -1.57E-04
    56 Broy./Diag. 0.10E+00    5.3     0.30868631       -49.2279098740 -3.22E-04
    57 Broy./Diag. 0.10E+00    5.3     0.30977390       -49.2280573454 -1.47E-04
    58 Broy./Diag. 0.10E+00    5.2     0.31820600       -49.2283596490 -3.02E-04
    59 Broy./Diag. 0.10E+00    5.2     0.32682806       -49.2284985967 -1.39E-04
    60 Broy./Diag. 0.10E+00    5.2     0.33479027       -49.2287831284 -2.85E-04
    61 Broy./Diag. 0.10E+00    5.2     0.34286525       -49.2289140960 -1.31E-04
    62 Broy./Diag. 0.10E+00    5.2     0.35026876       -49.2291824725 -2.68E-04
    63 Broy./Diag. 0.10E+00    5.2     0.35769501       -49.2293059579 -1.23E-04
    64 Broy./Diag. 0.10E+00    5.3     0.36444969       -49.2295596295 -2.54E-04
    65 Broy./Diag. 0.10E+00    5.3     0.37116134       -49.2296760849 -1.16E-04
    66 Broy./Diag. 0.10E+00    5.2     0.37721679       -49.2299162724 -2.40E-04
    67 Broy./Diag. 0.10E+00    5.2     0.38319770       -49.2300261156 -1.10E-04
    68 Broy./Diag. 0.10E+00    5.3     0.38854720       -49.2302538105 -2.28E-04
    69 Broy./Diag. 0.10E+00    5.2     0.39381474       -49.2303574416 -1.04E-04
    70 Broy./Diag. 0.10E+00    5.2     0.39847715       -49.2305734734 -2.16E-04
    71 Broy./Diag. 0.10E+00    5.2     0.40305782       -49.2306712513 -9.78E-05
    72 Broy./Diag. 0.10E+00    5.2     0.40705618       -49.2308763589 -2.05E-04
    73 Broy./Diag. 0.10E+00    5.3     0.41096825       -49.2309685653 -9.22E-05
    74 Broy./Diag. 0.10E+00    5.2     0.41431528       -49.2311634450 -1.95E-04
    75 Broy./Diag. 0.10E+00    5.2     0.41756280       -49.2312502992 -8.69E-05
    76 Broy./Diag. 0.10E+00    5.2     0.42025667       -49.2314356199 -1.85E-04
    77 Broy./Diag. 0.10E+00    5.2     0.42283172       -49.2315173030 -8.17E-05
    78 Broy./Diag. 0.10E+00    5.2     0.42485866       -49.2316936819 -1.76E-04
    79 Broy./Diag. 0.10E+00    5.2     0.42674581       -49.2317703273 -7.66E-05
    80 Broy./Diag. 0.10E+00    5.3     0.42808371       -49.2319382910 -1.68E-04
    81 Broy./Diag. 0.10E+00    5.3     0.42926250       -49.2320100565 -7.18E-05
    82 Broy./Diag. 0.10E+00    5.2     0.42988468       -49.2321700653 -1.60E-04
    83 Broy./Diag. 0.10E+00    5.2     0.43033207       -49.2322371859 -6.71E-05
    84 Broy./Diag. 0.10E+00    5.2     0.43021187       -49.2323896690 -1.52E-04
    85 Broy./Diag. 0.10E+00    5.3     0.42990565       -49.2324524189 -6.27E-05
    86 Broy./Diag. 0.10E+00    5.2     0.42902115       -49.2325977981 -1.45E-04
    87 Broy./Diag. 0.10E+00    5.2     0.42794476       -49.2326564477 -5.86E-05
    88 Broy./Diag. 0.10E+00    5.2     0.42628429       -49.2327952478 -1.39E-04
    89 Broy./Diag. 0.10E+00    5.3     0.42443278       -49.2328500343 -5.48E-05
    90 Broy./Diag. 0.10E+00    5.2     0.42199992       -49.2329828500 -1.33E-04
    91 Broy./Diag. 0.10E+00    5.2     0.41938325       -49.2330340021 -5.12E-05
    92 Broy./Diag. 0.10E+00    5.2     0.41619839       -49.2331613914 -1.27E-04
    93 Broy./Diag. 0.10E+00    5.2     0.41284045       -49.2332091272 -4.77E-05
    94 Broy./Diag. 0.10E+00    5.2     0.40893726       -49.2333315926 -1.22E-04
    95 Broy./Diag. 0.10E+00    5.2     0.40487113       -49.2333761126 -4.45E-05
    96 Broy./Diag. 0.10E+00    5.2     0.40028969       -49.2334940964 -1.18E-04
    97 Broy./Diag. 0.10E+00    5.3     0.39555138       -49.2335355772 -4.15E-05
    98 Broy./Diag. 0.10E+00    5.2     0.39033081       -49.2336494592 -1.14E-04
    99 Broy./Diag. 0.10E+00    5.2     0.38495371       -49.2336880382 -3.86E-05
   100 Broy./Diag. 0.10E+00    5.3     0.37912674       -49.2337981429 -1.10E-04
   101 Broy./Diag. 0.10E+00    5.3     0.37313834       -49.2338339171 -3.58E-05
   102 Broy./Diag. 0.10E+00    5.2     0.36672884       -49.2339405199 -1.07E-04
   103 Broy./Diag. 0.10E+00    5.2     0.36014970       -49.2339735565 -3.30E-05
   104 Broy./Diag. 0.10E+00    5.3     0.35317286       -49.2340768875 -1.03E-04
   105 Broy./Diag. 0.10E+00    5.3     0.34601731       -49.2341072392 -3.04E-05
   106 Broy./Diag. 0.10E+00    5.2     0.33848150       -49.2342074870 -1.00E-04
   107 Broy./Diag. 0.10E+00    5.2     0.33075937       -49.2342352004 -2.77E-05
   108 Broy./Diag. 0.10E+00    5.2     0.32266916       -49.2343325221 -9.73E-05
   109 Broy./Diag. 0.10E+00    5.2     0.31438827       -49.2343576426 -2.51E-05
   110 Broy./Diag. 0.10E+00    5.2     0.30574796       -49.2344521755 -9.45E-05
   111 Broy./Diag. 0.10E+00    5.2     0.31103125       -49.2344747527 -2.26E-05
   112 Broy./Diag. 0.10E+00    5.2     0.31941029       -49.2345666256 -9.19E-05
   113 Broy./Diag. 0.10E+00    5.3     0.32770999       -49.2345867177 -2.01E-05
   114 Broy./Diag. 0.10E+00    5.2     0.33558840       -49.2346760601 -8.93E-05
   115 Broy./Diag. 0.10E+00    5.2     0.34336544       -49.2346937382 -1.77E-05
   116 Broy./Diag. 0.10E+00    5.3     0.35070548       -49.2347806875 -8.69E-05
   117 Broy./Diag. 0.10E+00    5.2     0.35792152       -49.2347960380 -1.54E-05
   118 Broy./Diag. 0.10E+00    5.2     0.36468106       -49.2348807437 -8.47E-05
   119 Broy./Diag. 0.10E+00    5.2     0.37129564       -49.2348938675 -1.31E-05
   120 Broy./Diag. 0.10E+00    5.2     0.37743276       -49.2349764919 -8.26E-05
   121 Broy./Diag. 0.10E+00    5.2     0.38340770       -49.2349875012 -1.10E-05
   122 Broy./Diag. 0.10E+00    5.2     0.38888548       -49.2350682137 -8.07E-05
   123 Broy./Diag. 0.10E+00    5.2     0.39418881       -49.2350772247 -9.01E-06
   124 Broy./Diag. 0.10E+00    5.3     0.39897887       -49.2351561914 -7.90E-05
   125 Broy./Diag. 0.10E+00    5.2     0.40358712       -49.2351633162 -7.12E-06
   126 Broy./Diag. 0.10E+00    5.2     0.40767079       -49.2352406874 -7.74E-05
   127 Broy./Diag. 0.10E+00    5.2     0.41156894       -49.2352460256 -5.34E-06
   128 Broy./Diag. 0.10E+00    5.2     0.41493589       -49.2353219270 -7.59E-05
   129 Broy./Diag. 0.10E+00    5.3     0.41811534       -49.2353255606 -3.63E-06
   130 Broy./Diag. 0.10E+00    5.3     0.42076065       -49.2354000891 -7.45E-05
   131 Broy./Diag. 0.10E+00    5.2     0.42321638       -49.2354020819 -1.99E-06
   132 Broy./Diag. 0.10E+00    5.2     0.42513734       -49.2354753087 -7.32E-05
   133 Broy./Diag. 0.10E+00    5.3     0.42686549       -49.2354757099 -4.01E-07
   134 Broy./Diag. 0.10E+00    5.2     0.42805958       -49.2355476885 -7.20E-05
   135 Broy./Diag. 0.10E+00    5.2     0.42905649       -49.2355465381  1.15E-06
   136 Broy./Diag. 0.10E+00    5.2     0.42952110       -49.2356173158 -7.08E-05
   137 Broy./Diag. 0.10E+00    5.3     0.42978386       -49.2356146497  2.67E-06
   138 Broy./Diag. 0.10E+00    5.2     0.42951752       -49.2356842804 -6.96E-05
   139 Broy./Diag. 0.10E+00    5.3     0.42904552       -49.2356801202  4.16E-06
   140 Broy./Diag. 0.10E+00    5.2     0.42804977       -49.2357486890 -6.86E-05
   141 Broy./Diag. 0.10E+00    5.2     0.42684630       -49.2357430764  5.61E-06
   142 Broy./Diag. 0.10E+00    5.3     0.42512711       -49.2358106711 -6.76E-05
   143 Broy./Diag. 0.10E+00    5.2     0.42320001       -49.2358036842  6.99E-06
   144 Broy./Diag. 0.10E+00    5.3     0.42076776       -49.2358703684 -6.67E-05
   145 Broy./Diag. 0.10E+00    5.3     0.41812846       -49.2358621005  8.27E-06
   146 Broy./Diag. 0.10E+00    5.2     0.41499614       -49.2359279266 -6.58E-05
   147 Broy./Diag. 0.10E+00    5.2     0.41165737       -49.2359184637  9.46E-06
   148 Broy./Diag. 0.10E+00    5.3     0.40783772       -49.2359834728 -6.50E-05
   149 Broy./Diag. 0.10E+00    5.4     0.40381091       -49.2359728925  1.06E-05
   150 Broy./Diag. 0.10E+00    5.2     0.39931383       -49.2360371099 -6.42E-05
   151 Broy./Diag. 0.10E+00    5.2     0.39460716       -49.2360254793  1.16E-05
   152 Broy./Diag. 0.10E+00    5.3     0.38943869       -49.2360889029 -6.34E-05
   153 Broy./Diag. 0.10E+00    5.3     0.38405725       -49.2360762628  1.26E-05
   154 Broy./Diag. 0.10E+00    5.2     0.37822037       -49.2361388870 -6.26E-05
   155 Broy./Diag. 0.10E+00    5.2     0.37216775       -49.2361252806  1.36E-05
   156 Broy./Diag. 0.10E+00    5.3     0.36566558       -49.2361870746 -6.18E-05
   157 Broy./Diag. 0.10E+00    5.2     0.35894762       -49.2361725377  1.45E-05
   158 Broy./Diag. 0.10E+00    5.2     0.35178775       -49.2362334809 -6.09E-05
   159 Broy./Diag. 0.10E+00    5.3     0.34441665       -49.2362180441  1.54E-05
   160 Broy./Diag. 0.10E+00    5.2     0.33661581       -49.2362781227 -6.01E-05
   161 Broy./Diag. 0.10E+00    5.3     0.32861421       -49.2362618288  1.63E-05
   162 Broy./Diag. 0.10E+00    5.3     0.32020238       -49.2363210559 -5.92E-05
   163 Broy./Diag. 0.10E+00    5.3     0.31160616       -49.2363039697  1.71E-05
   164 Broy./Diag. 0.10E+00    5.2     0.30485897       -49.2363623538 -5.84E-05
   165 Broy./Diag. 0.10E+00    5.2     0.31375941       -49.2363445573  1.78E-05
   166 Broy./Diag. 0.10E+00    5.2     0.32227406       -49.2364021519 -5.76E-05
   167 Broy./Diag. 0.10E+00    5.2     0.33059480       -49.2363837314  1.84E-05
   168 Broy./Diag. 0.10E+00    5.2     0.33849927       -49.2364405969 -5.69E-05
   169 Broy./Diag. 0.10E+00    5.2     0.34619662       -49.2364216410  1.90E-05
   170 Broy./Diag. 0.10E+00    5.2     0.35345358       -49.2364778524 -5.62E-05
   171 Broy./Diag. 0.10E+00    5.2     0.36049713       -49.2364584526  1.94E-05
   172 Broy./Diag. 0.10E+00    5.3     0.36708418       -49.2365140655 -5.56E-05
   173 Broy./Diag. 0.10E+00    5.3     0.37345711       -49.2364942972  1.98E-05
   174 Broy./Diag. 0.10E+00    5.2     0.37936540       -49.2365493612 -5.51E-05
   175 Broy./Diag. 0.10E+00    5.2     0.38506235       -49.2365292782  2.01E-05
   176 Broy./Diag. 0.10E+00    5.3     0.39029334       -49.2365838178 -5.45E-05
   177 Broy./Diag. 0.10E+00    5.3     0.39531671       -49.2365634604  2.04E-05
   178 Broy./Diag. 0.10E+00    5.2     0.39987729       -49.2366174658 -5.40E-05
   179 Broy./Diag. 0.10E+00    5.3     0.40423262       -49.2365968462  2.06E-05
   180 Broy./Diag. 0.10E+00    5.2     0.40813041       -49.2366502984 -5.35E-05
   181 Broy./Diag. 0.10E+00    5.2     0.41182236       -49.2366294167  2.09E-05
   182 Broy./Diag. 0.10E+00    5.2     0.41506130       -49.2366822652 -5.28E-05
   183 Broy./Diag. 0.10E+00    5.2     0.41809000       -49.2366611071  2.12E-05
   184 Broy./Diag. 0.10E+00    5.2     0.42066723       -49.2367132857 -5.22E-05
   185 Broy./Diag. 0.10E+00    5.3     0.42302589       -49.2366918318  2.15E-05
   186 Broy./Diag. 0.10E+00    5.2     0.42493015       -49.2367432647 -5.14E-05
   187 Broy./Diag. 0.10E+00    5.2     0.42660426       -49.2367214841  2.18E-05
   188 Broy./Diag. 0.10E+00    5.3     0.42781607       -49.2367720975 -5.06E-05
   189 Broy./Diag. 0.10E+00    5.2     0.42878436       -49.2367499709  2.21E-05
   190 Broy./Diag. 0.10E+00    5.2     0.42927859       -49.2367996944 -4.97E-05
   191 Broy./Diag. 0.10E+00    5.3     0.42951642       -49.2367772128  2.25E-05
   192 Broy./Diag. 0.10E+00    5.2     0.42926720       -49.2368260023 -4.88E-05
   193 Broy./Diag. 0.10E+00    5.3     0.42875193       -49.2368031810  2.28E-05
   194 Broy./Diag. 0.10E+00    5.2     0.42773917       -49.2368510294 -4.78E-05
   195 Broy./Diag. 0.10E+00    5.3     0.42645639       -49.2368279172  2.31E-05
   196 Broy./Diag. 0.10E+00    5.3     0.42467205       -49.2368748612 -4.69E-05
   197 Broy./Diag. 0.10E+00    5.4     0.42262066       -49.2368515411  2.33E-05
   198 Broy./Diag. 0.10E+00    5.3     0.42007259       -49.2368976517 -4.61E-05
   199 Broy./Diag. 0.10E+00    5.3     0.41726664       -49.2368742282  2.34E-05
   200 Broy./Diag. 0.10E+00    5.2     0.41397818       -49.2369196112 -4.54E-05
   201 Broy./Diag. 0.10E+00    5.3     0.41044469       -49.2368961842  2.34E-05
   202 Broy./Diag. 0.10E+00    5.3     0.40645028       -49.2369409470 -4.48E-05
   203 Broy./Diag. 0.10E+00    5.2     0.40222382       -49.2369176114  2.33E-05
   204 Broy./Diag. 0.10E+00    5.2     0.39756213       -49.2369618431 -4.42E-05
   205 Broy./Diag. 0.10E+00    5.2     0.39267854       -49.2369386624  2.32E-05
   206 Broy./Diag. 0.10E+00    5.2     0.38738602       -49.2369824200 -4.38E-05
   207 Broy./Diag. 0.10E+00    5.2     0.38187733       -49.2369594364  2.30E-05
   208 Broy./Diag. 0.10E+00    5.2     0.37598374       -49.2370027423 -4.33E-05
   209 Broy./Diag. 0.10E+00    5.3     0.36987538       -49.2369799603  2.28E-05
   210 Broy./Diag. 0.10E+00    5.2     0.36340226       -49.2370228127 -4.29E-05
   211 Broy./Diag. 0.10E+00    5.3     0.35671271       -49.2370002155  2.26E-05
   212 Broy./Diag. 0.10E+00    5.2     0.34967388       -49.2370425904 -4.24E-05
   213 Broy./Diag. 0.10E+00    5.2     0.34241565       -49.2370201514  2.24E-05
   214 Broy./Diag. 0.10E+00    5.3     0.33481926       -49.2370620020 -4.19E-05
   215 Broy./Diag. 0.10E+00    5.2     0.32700101       -49.2370396882  2.23E-05
   216 Broy./Diag. 0.10E+00    5.3     0.31885240       -49.2370809614 -4.13E-05
   217 Broy./Diag. 0.10E+00    5.2     0.31048130       -49.2370587401  2.22E-05
   218 Broy./Diag. 0.10E+00    5.2     0.30548415       -49.2370993843 -4.06E-05
   219 Broy./Diag. 0.10E+00    5.2     0.31410778       -49.2370772219  2.22E-05
   220 Broy./Diag. 0.10E+00    5.3     0.32239881       -49.2371171986 -4.00E-05
   221 Broy./Diag. 0.10E+00    5.3     0.33053132       -49.2370950722  2.21E-05
   222 Broy./Diag. 0.10E+00    5.2     0.33831709       -49.2371343436 -3.93E-05
   223 Broy./Diag. 0.10E+00    5.3     0.34592438       -49.2371122487  2.21E-05
   224 Broy./Diag. 0.10E+00    5.3     0.35316665       -49.2371508051 -3.86E-05
   225 Broy./Diag. 0.10E+00    5.2     0.36020947       -49.2371287467  2.21E-05
   226 Broy./Diag. 0.10E+00    5.2     0.36686661       -49.2371665950 -3.78E-05
   227 Broy./Diag. 0.10E+00    5.2     0.37330455       -49.2371445996  2.20E-05
   228 Broy./Diag. 0.10E+00    5.2     0.37933607       -49.2371817699 -3.72E-05
   229 Broy./Diag. 0.10E+00    5.2     0.38513202       -49.2371598730  2.19E-05
   230 Broy./Diag. 0.10E+00    5.2     0.39050317       -49.2371964137 -3.65E-05
   231 Broy./Diag. 0.10E+00    5.4     0.39562683       -49.2371746536  2.18E-05
   232 Broy./Diag. 0.10E+00    5.3     0.40031136       -49.2372106133 -3.60E-05
   233 Broy./Diag. 0.10E+00    5.3     0.40474120       -49.2371890310  2.16E-05
   234 Broy./Diag. 0.10E+00    5.2     0.40872222       -49.2372244534 -3.54E-05
   235 Broy./Diag. 0.10E+00    5.2     0.41244484       -49.2372030774  2.14E-05
   236 Broy./Diag. 0.10E+00    5.2     0.41571312       -49.2372379876 -3.49E-05
   237 Broy./Diag. 0.10E+00    5.2     0.41872113       -49.2372168328  2.12E-05
   238 Broy./Diag. 0.10E+00    5.3     0.42127202       -49.2372512442 -3.44E-05
   239 Broy./Diag. 0.10E+00    5.2     0.42356095       -49.2372303068  2.09E-05
   240 Broy./Diag. 0.10E+00    5.2     0.42539150       -49.2372642088 -3.39E-05
   241 Broy./Diag. 0.10E+00    5.2     0.42695772       -49.2372434774  2.07E-05
   242 Broy./Diag. 0.10E+00    5.3     0.42806504       -49.2372768563 -3.34E-05
   243 Broy./Diag. 0.10E+00    5.2     0.42890503       -49.2372563157  2.05E-05
   244 Broy./Diag. 0.10E+00    5.5     0.42928643       -49.2372891522 -3.28E-05
   245 Broy./Diag. 0.10E+00    5.4     0.42939766       -49.2372687839  2.04E-05
   246 Broy./Diag. 0.10E+00    5.2     0.42905197       -49.2373010739 -3.23E-05
   247 Broy./Diag. 0.10E+00    5.2     0.42843446       -49.2372808688  2.02E-05
   248 Broy./Diag. 0.10E+00    5.3     0.42736382       -49.2373126220 -3.18E-05
   249 Broy./Diag. 0.10E+00    5.2     0.42602165       -49.2372925816  2.00E-05
   250 Broy./Diag. 0.10E+00    5.3     0.42423269       -49.2373238206 -3.12E-05
   251 Broy./Diag. 0.10E+00    5.2     0.42217435       -49.2373039587  1.99E-05
   252 Broy./Diag. 0.10E+00    5.2     0.41967774       -49.2373347137 -3.08E-05
   253 Broy./Diag. 0.10E+00    5.2     0.41691489       -49.2373150465  1.97E-05
   254 Broy./Diag. 0.10E+00    5.3     0.41372336       -49.2373453536 -3.03E-05
   255 Broy./Diag. 0.10E+00    5.3     0.41026851       -49.2373258961  1.95E-05
   256 Broy./Diag. 0.10E+00    5.3     0.40639419       -49.2373557786 -2.99E-05
   257 Broy./Diag. 0.10E+00    5.2     0.40225809       -49.2373365335  1.92E-05
   258 Broy./Diag. 0.10E+00    5.3     0.39771013       -49.2373660082 -2.95E-05
   259 Broy./Diag. 0.10E+00    5.2     0.39290027       -49.2373469629  1.90E-05
   260 Broy./Diag. 0.10E+00    5.2     0.38768410       -49.2373760250 -2.91E-05
   261 Broy./Diag. 0.10E+00    5.2     0.38220486       -49.2373571595  1.89E-05
   262 Broy./Diag. 0.10E+00    5.2     0.37632346       -49.2373857911 -2.86E-05
   263 Broy./Diag. 0.10E+00    5.2     0.37017831       -49.2373670802  1.87E-05
   264 Broy./Diag. 0.10E+00    5.2     0.36363529       -49.2373952533 -2.82E-05
   265 Broy./Diag. 0.10E+00    5.3     0.35683033       -49.2373766648  1.86E-05
   266 Broy./Diag. 0.10E+00    5.2     0.34963434       -49.2374043576 -2.77E-05
   267 Broy./Diag. 0.10E+00    5.3     0.34218279       -49.2373858683  1.85E-05
   268 Broy./Diag. 0.10E+00    5.4     0.33435216       -49.2374130633 -2.72E-05
   269 Broy./Diag. 0.10E+00    5.2     0.32627823       -49.2373946648  1.84E-05
   270 Broy./Diag. 0.10E+00    5.2     0.31784421       -49.2374213648 -2.67E-05
   271 Broy./Diag. 0.10E+00    5.2     0.30918537       -49.2374030651  1.83E-05
   272 Broy./Diag. 0.10E+00    5.3     0.30693979       -49.2374292947 -2.62E-05
   273 Broy./Diag. 0.10E+00    5.2     0.31572426       -49.2374111155  1.82E-05
   274 Broy./Diag. 0.10E+00    5.2     0.32416086       -49.2374369212 -2.58E-05
   275 Broy./Diag. 0.10E+00    5.2     0.33236224       -49.2374189029  1.80E-05
   276 Broy./Diag. 0.10E+00    5.2     0.34018881       -49.2374443478 -2.54E-05
   277 Broy./Diag. 0.10E+00    5.2     0.34776525       -49.2374265295  1.78E-05
   278 Broy./Diag. 0.10E+00    5.3     0.35494657       -49.2374516811 -2.52E-05
   279 Broy./Diag. 0.10E+00    5.3     0.36186961       -49.2374341036  1.76E-05
   280 Broy./Diag. 0.10E+00    5.3     0.36838483       -49.2374590188 -2.49E-05
   281 Broy./Diag. 0.10E+00    5.3     0.37463952       -49.2374417103  1.73E-05
   282 Broy./Diag. 0.10E+00    5.3     0.38048081       -49.2374664357 -2.47E-05
   283 Broy./Diag. 0.10E+00    5.2     0.38606324       -49.2374494069  1.70E-05
   284 Broy./Diag. 0.10E+00    5.2     0.39123230       -49.2374739651 -2.46E-05
   285 Broy./Diag. 0.10E+00    5.2     0.39614572       -49.2374572079  1.68E-05
   286 Broy./Diag. 0.10E+00    5.2     0.40064910       -49.2374816012 -2.44E-05
   287 Broy./Diag. 0.10E+00    5.2     0.40489941       -49.2374650889  1.65E-05
   288 Broy./Diag. 0.10E+00    5.2     0.40874393       -49.2374892964 -2.42E-05
   289 Broy./Diag. 0.10E+00    5.2     0.41233554       -49.2374729868  1.63E-05
   290 Broy./Diag. 0.10E+00    5.3     0.41552415       -49.2374969676 -2.40E-05
   291 Broy./Diag. 0.10E+00    5.3     0.41845653       -49.2374808092  1.62E-05
   292 Broy./Diag. 0.10E+00    5.3     0.42098543       -49.2375045073 -2.37E-05
   293 Broy./Diag. 0.10E+00    5.3     0.42325091       -49.2374884388  1.61E-05
   294 Broy./Diag. 0.10E+00    5.2     0.42510807       -49.2375117871 -2.33E-05
   295 Broy./Diag. 0.10E+00    5.2     0.42669117       -49.2374957453  1.60E-05
   296 Broy./Diag. 0.10E+00    5.3     0.42785669       -49.2375186797 -2.29E-05
   297 Broy./Diag. 0.10E+00    5.3     0.42873542       -49.2375026068  1.61E-05
   298 Broy./Diag. 0.10E+00    5.3     0.42918427       -49.2375250692 -2.25E-05
   299 Broy./Diag. 0.10E+00    5.3     0.42933373       -49.2375089250  1.61E-05
   300 Broy./Diag. 0.10E+00    5.3     0.42904072       -49.2375308822 -2.20E-05
   301 Broy./Diag. 0.10E+00    5.2     0.42843866       -49.2375146497  1.62E-05
   302 Broy./Diag. 0.10E+00    5.2     0.42738480       -49.2375361011 -2.15E-05
   303 Broy./Diag. 0.10E+00    5.2     0.42601784       -49.2375198008  1.63E-05
   304 Broy./Diag. 0.10E+00    5.2     0.42419636       -49.2375407879 -2.10E-05
   305 Broy./Diag. 0.10E+00    5.3     0.42206486       -49.2375244721  1.63E-05
   306 Broy./Diag. 0.10E+00    5.2     0.41948467       -49.2375450738 -2.06E-05
   307 Broy./Diag. 0.10E+00    5.2     0.41660418       -49.2375288196  1.63E-05
   308 Broy./Diag. 0.10E+00    5.3     0.41328912       -49.2375491360 -2.03E-05
   309 Broy./Diag. 0.10E+00    5.2     0.40968775       -49.2375330249  1.61E-05
   310 Broy./Diag. 0.10E+00    5.2     0.40567198       -49.2375531584 -2.01E-05
   311 Broy./Diag. 0.10E+00    5.2     0.40138481       -49.2375372605  1.59E-05
   312 Broy./Diag. 0.10E+00    5.2     0.39670610       -49.2375572947 -2.00E-05
   313 Broy./Diag. 0.10E+00    5.3     0.39176884       -49.2375416550  1.56E-05
   314 Broy./Diag. 0.10E+00    5.3     0.38646238       -49.2375616433 -2.00E-05
   315 Broy./Diag. 0.10E+00    5.4     0.38090648       -49.2375462767  1.54E-05
   316 Broy./Diag. 0.10E+00    5.3     0.37500098       -49.2375662411 -2.00E-05
   317 Broy./Diag. 0.10E+00    5.2     0.36885111       -49.2375511371  1.51E-05
   318 Broy./Diag. 0.10E+00    5.2     0.36236737       -49.2375710702 -1.99E-05
   319 Broy./Diag. 0.10E+00    5.2     0.35564119       -49.2375561976  1.49E-05
   320 Broy./Diag. 0.10E+00    5.2     0.34859278       -49.2375760701 -1.99E-05
   321 Broy./Diag. 0.10E+00    5.2     0.34130204       -49.2375613855  1.47E-05
   322 Broy./Diag. 0.10E+00    5.3     0.33369718       -49.2375811556 -1.98E-05
   323 Broy./Diag. 0.10E+00    5.2     0.32584977       -49.2375666096  1.45E-05
   324 Broy./Diag. 0.10E+00    5.2     0.31769398       -49.2375862284 -1.96E-05
   325 Broy./Diag. 0.10E+00    5.2     0.30929656       -49.2375717699  1.45E-05
   326 Broy./Diag. 0.10E+00    5.2     0.30649942       -49.2375911894 -1.94E-05
   327 Broy./Diag. 0.10E+00    5.2     0.31505785       -49.2375767718  1.44E-05
   328 Broy./Diag. 0.10E+00    5.2     0.32332082       -49.2375959505 -1.92E-05
   329 Broy./Diag. 0.10E+00    5.2     0.33138892       -49.2375815382  1.44E-05
   330 Broy./Diag. 0.10E+00    5.3     0.33914624       -49.2376004451 -1.89E-05
   331 Broy./Diag. 0.10E+00    5.3     0.34668933       -49.2375860198  1.44E-05
   332 Broy./Diag. 0.10E+00    5.2     0.35390283       -49.2376046403 -1.86E-05
   333 Broy./Diag. 0.10E+00    5.2     0.36088149       -49.2375902000  1.44E-05
   334 Broy./Diag. 0.10E+00    5.3     0.36750995       -49.2376085420 -1.83E-05
   335 Broy./Diag. 0.10E+00    5.2     0.37388383       -49.2375941005  1.44E-05
   336 Broy./Diag. 0.10E+00    5.3     0.37988737       -49.2376121894 -1.81E-05
   337 Broy./Diag. 0.10E+00    5.3     0.38561957       -49.2375977767  1.44E-05
   338 Broy./Diag. 0.10E+00    5.3     0.39096405       -49.2376156509 -1.79E-05
   339 Broy./Diag. 0.10E+00    5.2     0.39602480       -49.2376013026  1.43E-05
   340 Broy./Diag. 0.10E+00    5.3     0.40068467       -49.2376190057 -1.77E-05
   341 Broy./Diag. 0.10E+00    5.2     0.40505295       -49.2376047542  1.43E-05
   342 Broy./Diag. 0.10E+00    5.4     0.40901173       -49.2376223214 -1.76E-05
   343 Broy./Diag. 0.10E+00    5.2     0.41267470       -49.2376081902  1.41E-05
   344 Broy./Diag. 0.10E+00    5.3     0.41592325       -49.2376256421 -1.75E-05
   345 Broy./Diag. 0.10E+00    5.3     0.41887382       -49.2376116393  1.40E-05
   346 Broy./Diag. 0.10E+00    5.3     0.42140738       -49.2376289786 -1.73E-05
   347 Broy./Diag. 0.10E+00    5.3     0.42364129       -49.2376150985  1.39E-05
   348 Broy./Diag. 0.10E+00    5.3     0.42545675       -49.2376323125 -1.72E-05
   349 Broy./Diag. 0.10E+00    5.3     0.42697048       -49.2376185383  1.38E-05
   350 Broy./Diag. 0.10E+00    5.3     0.42806477       -49.2376356067 -1.71E-05
   351 Broy./Diag. 0.10E+00    5.3     0.42885489       -49.2376219155  1.37E-05
   352 Broy./Diag. 0.10E+00    5.3     0.42922518       -49.2376388172 -1.69E-05
   353 Broy./Diag. 0.10E+00    5.3     0.42928921       -49.2376251905  1.36E-05
   354 Broy./Diag. 0.10E+00    5.2     0.42893430       -49.2376419133 -1.67E-05
   355 Broy./Diag. 0.10E+00    5.3     0.42827240       -49.2376283423  1.36E-05
   356 Broy./Diag. 0.10E+00    5.3     0.42719452       -49.2376448852 -1.65E-05
   357 Broy./Diag. 0.10E+00    5.2     0.42581092       -49.2376313747  1.35E-05
   358 Broy./Diag. 0.10E+00    5.3     0.42401671       -49.2376477523 -1.64E-05
   359 Broy./Diag. 0.10E+00    5.2     0.42192002       -49.2376343150  1.34E-05
   360 Broy./Diag. 0.10E+00    5.2     0.41942009       -49.2376505498 -1.62E-05
   361 Broy./Diag. 0.10E+00    5.3     0.41662199       -49.2376372047  1.33E-05
   362 Broy./Diag. 0.10E+00    5.3     0.41342893       -49.2376533206 -1.61E-05
   363 Broy./Diag. 0.10E+00    5.4     0.40994184       -49.2376400829  1.32E-05
   364 Broy./Diag. 0.10E+00    5.3     0.40606751       -49.2376560957 -1.60E-05
   365 Broy./Diag. 0.10E+00    5.3     0.40190202       -49.2376429712  1.31E-05
   366 Broy./Diag. 0.10E+00    5.3     0.39735541       -49.2376588831 -1.59E-05
   367 Broy./Diag. 0.10E+00    5.2     0.39251877       -49.2376458652  1.30E-05
   368 Broy./Diag. 0.10E+00    5.3     0.38730521       -49.2376616630 -1.58E-05
   369 Broy./Diag. 0.10E+00    5.2     0.38180158       -49.2376487333  1.29E-05
   370 Broy./Diag. 0.10E+00    5.3     0.37592406       -49.2376643916 -1.57E-05
   371 Broy./Diag. 0.10E+00    5.3     0.36975669       -49.2376515230  1.29E-05
   372 Broy./Diag. 0.10E+00    5.3     0.36321897       -49.2376670099 -1.55E-05
   373 Broy./Diag. 0.10E+00    5.3     0.35639397       -49.2376541736  1.28E-05
   374 Broy./Diag. 0.10E+00    5.2     0.34920494       -49.2376694580 -1.53E-05
   375 Broy./Diag. 0.10E+00    5.2     0.34173562       -49.2376566314  1.28E-05
[...]
   417 Broy./Diag. 0.10E+00    5.3     0.40962210       -49.2376972860  1.15E-05
   418 Broy./Diag. 0.10E+00    5.4     0.40562185       -49.2377091307 -1.18E-05
   419 Broy./Diag. 0.10E+00    5.3     0.40132557       -49.2376977855  1.13E-05
   420 Broy./Diag. 0.10E+00    5.3     0.39666269       -49.2377096397 -1.19E-05
   421 Broy./Diag. 0.10E+00    5.3     0.39171850       -49.2376985390  1.11E-05
   422 Broy./Diag. 0.10E+00    5.3     0.38642783       -49.2377104476 -1.19E-05
   423 Broy./Diag. 0.10E+00    5.2     0.38086720       -49.2376996119  1.08E-05
   424 Broy./Diag. 0.10E+00    5.3     0.37497721       -49.2377115889 -1.20E-05
   425 Broy./Diag. 0.10E+00    5.2     0.36882471       -49.2377010116  1.06E-05
   426 Broy./Diag. 0.10E+00    5.3     0.36235614       -49.2377130444 -1.20E-05
   427 Broy./Diag. 0.10E+00    5.3     0.35562922       -49.2377026977  1.03E-05
   428 Broy./Diag. 0.10E+00    5.3     0.34859576       -49.2377147535 -1.21E-05
   429 Broy./Diag. 0.10E+00    5.2     0.34130592       -49.2377045956  1.02E-05
   430 Broy./Diag. 0.10E+00    5.3     0.33371602       -49.2377166285 -1.20E-05
   431 Broy./Diag. 0.10E+00    5.2     0.32587084       -49.2377066109  1.00E-05
   432 Broy./Diag. 0.10E+00    5.4     0.31773028       -49.2377185696 -1.20E-05
   433 Broy./Diag. 0.10E+00    5.3     0.30933619       -49.2377086426  9.93E-06
   434 Broy./Diag. 0.10E+00    5.3     0.30640482       -49.2377204761 -1.18E-05
   435 Broy./Diag. 0.10E+00    5.2     0.31494784       -49.2377105947  9.88E-06
   436 Broy./Diag. 0.10E+00    5.3     0.32321706       -49.2377222584 -1.17E-05
   437 Broy./Diag. 0.10E+00    5.2     0.33127106       -49.2377123880  9.87E-06
   438 Broy./Diag. 0.10E+00    5.3     0.33903551       -49.2377238500 -1.15E-05
   439 Broy./Diag. 0.10E+00    5.3     0.34656584       -49.2377139699  9.88E-06
   440 Broy./Diag. 0.10E+00    5.2     0.35378761       -49.2377252159 -1.12E-05
   441 Broy./Diag. 0.10E+00    5.3     0.36075478       -49.2377153228  9.89E-06
   442 Broy./Diag. 0.10E+00    5.3     0.36739283       -49.2377263579 -1.10E-05
   443 Broy./Diag. 0.10E+00    5.2     0.37375633       -49.2377164665  9.89E-06
   444 Broy./Diag. 0.10E+00    5.3     0.37977093       -49.2377273136 -1.08E-05
   445 Broy./Diag. 0.10E+00    5.2     0.38549377       -49.2377174535  9.86E-06
   446 Broy./Diag. 0.10E+00    5.3     0.39085086       -49.2377281484 -1.07E-05
   447 Broy./Diag. 0.10E+00    5.2     0.39590318       -49.2377183561  9.79E-06
   448 Broy./Diag. 0.10E+00    5.2     0.40057717       -49.2377289383 -1.06E-05
   449 Broy./Diag. 0.10E+00    5.2     0.40493798       -49.2377192476  9.69E-06
   450 Broy./Diag. 0.10E+00    5.3     0.40891229       -49.2377297502 -1.05E-05
   451 Broy./Diag. 0.10E+00    5.2     0.41256874       -49.2377201850  9.57E-06
   452 Broy./Diag. 0.10E+00    5.2     0.41583409       -49.2377306267 -1.04E-05
   453 Broy./Diag. 0.10E+00    5.4     0.41877915       -49.2377211956  9.43E-06
   454 Broy./Diag. 0.10E+00    5.3     0.42133063       -49.2377315784 -1.04E-05
   455 Broy./Diag. 0.10E+00    5.4     0.42356012       -49.2377222741  9.30E-06
   456 Broy./Diag. 0.10E+00    5.3     0.42539447       -49.2377325849 -1.03E-05
   457 Broy./Diag. 0.10E+00    5.3     0.42690493       -49.2377233897  9.20E-06
   458 Broy./Diag. 0.10E+00    5.4     0.42801898       -49.2377336071 -1.02E-05
   459 Broy./Diag. 0.10E+00    5.3     0.42880702       -49.2377244983  9.11E-06
   460 Broy./Diag. 0.10E+00    5.3     0.42919784       -49.2377346009 -1.01E-05
   461 Broy./Diag. 0.10E+00    5.3     0.42926096       -49.2377255596  9.04E-06
   462 Broy./Diag. 0.10E+00    5.3     0.42892726       -49.2377355336 -9.97E-06
   463 Broy./Diag. 0.10E+00    5.2     0.42826558       -49.2377265504  8.98E-06
   464 Broy./Diag. 0.10E+00    5.2     0.42720948       -49.2377363953 -9.84E-06
   465 Broy./Diag. 0.10E+00    5.3     0.42582717       -49.2377274729  8.92E-06
   466 Broy./Diag. 0.10E+00    5.3     0.42405519       -49.2377372010 -9.73E-06
   467 Broy./Diag. 0.10E+00    5.3     0.42196080       -49.2377283533  8.85E-06
   468 Broy./Diag. 0.10E+00    5.2     0.41948341       -49.2377379857 -9.63E-06
   469 Broy./Diag. 0.10E+00    5.2     0.41668860       -49.2377292311  8.75E-06
   470 Broy./Diag. 0.10E+00    5.3     0.41351828       -49.2377387898 -9.56E-06
   471 Broy./Diag. 0.10E+00    5.2     0.41003548       -49.2377301439  8.65E-06
   472 Broy./Diag. 0.10E+00    5.2     0.40618407       -49.2377396440 -9.50E-06
   473 Broy./Diag. 0.10E+00    5.3     0.40202387       -49.2377311124  8.53E-06
   474 Broy./Diag. 0.10E+00    5.3     0.39750037       -49.2377405561 -9.44E-06
   475 Broy./Diag. 0.10E+00    5.2     0.39267001       -49.2377321313  8.42E-06
   476 Broy./Diag. 0.10E+00    5.2     0.38747981       -49.2377415063 -9.38E-06
   477 Broy./Diag. 0.10E+00    5.3     0.38198339       -49.2377331684  8.34E-06
   478 Broy./Diag. 0.10E+00    5.3     0.37612953       -49.2377424500 -9.28E-06
   479 Broy./Diag. 0.10E+00    5.3     0.36997020       -49.2377341703  8.28E-06
   480 Broy./Diag. 0.10E+00    5.4     0.36345646       -49.2377433275 -9.16E-06
   481 Broy./Diag. 0.10E+00    5.3     0.35664013       -49.2377350754  8.25E-06
   482 Broy./Diag. 0.10E+00    5.3     0.34947533       -49.2377440783 -9.00E-06
   483 Broy./Diag. 0.10E+00    5.2     0.34201510       -49.2377358288  8.25E-06
   484 Broy./Diag. 0.10E+00    5.3     0.33421750       -49.2377446575 -8.83E-06
   485 Broy./Diag. 0.10E+00    5.2     0.32613760       -49.2377363989  8.26E-06
   486 Broy./Diag. 0.10E+00    5.2     0.31773820       -49.2377450500 -8.65E-06
   487 Broy./Diag. 0.10E+00    5.3     0.30907622       -49.2377367887  8.26E-06
   488 Broy./Diag. 0.10E+00    5.2     0.30691371       -49.2377452794 -8.49E-06
   489 Broy./Diag. 0.10E+00    5.2     0.31566307       -49.2377370413  8.24E-06
   490 Broy./Diag. 0.10E+00    5.2     0.32410371       -49.2377454081 -8.37E-06
   491 Broy./Diag. 0.10E+00    5.2     0.33227098       -49.2377372341  8.17E-06
   492 Broy./Diag. 0.10E+00    5.2     0.34010541       -49.2377455273 -8.29E-06
   493 Broy./Diag. 0.10E+00    5.2     0.34764889       -49.2377374655  8.06E-06
   494 Broy./Diag. 0.10E+00    5.2     0.35484200       -49.2377457386 -8.27E-06
   495 Broy./Diag. 0.10E+00    5.3     0.36173348       -49.2377378344  7.90E-06
   496 Broy./Diag. 0.10E+00    5.3     0.36826426       -49.2377461347 -8.30E-06
   497 Broy./Diag. 0.10E+00    5.3     0.37448905       -49.2377384221  7.71E-06
   498 Broy./Diag. 0.10E+00    5.3     0.38034923       -49.2377467820 -8.36E-06
   499 Broy./Diag. 0.10E+00    5.3     0.38590374       -49.2377392780  7.50E-06
   500 Broy./Diag. 0.10E+00    5.2     0.39109442       -49.2377477105 -8.43E-06

  Leaving inner SCF loop after reaching   500 steps.


  Electronic density on regular grids:         -7.1326617136        2.8673382864
  Core density on regular grids:               10.0000000000        0.0000000000
  Hard and soft densities (Lebedev):          -13.5163177259      -10.6489795624
  Total Rho_soft + Rho1_hard - Rho1_soft       -9.9999998772
  Total charge density (r-space):               0.0000001228
  Total Rho_soft + Rho0_soft (g-space):         0.0000000620

  Overlap energy of the core charge distribution:               0.00000845868521
  Self energy of the core charge distribution:                -32.50467561761386
  Core Hamiltonian energy:                                    -13.36885851515231
  Hartree energy:                                              11.34649004591177
  Exchange-correlation energy:                                 -2.61148899271925

  GAPW| Exc from hard and soft atomic rho1:                    -5.13268394728251
  GAPW| local Eh = 1 center integrals:                         -6.96653914232911

  Total energy:                                               -49.23774771050006

 *******************************************************************************
 *   ___                                                                       *
 *  /   \                                                                      *
 * [ABORT]                                                                     *
 *  \___/     SCF run NOT converged. To continue the calculation regardless,   *
 *    |             please set the keyword IGNORE_CONVERGENCE_FAILURE.         *
 *  O/|                                                                        *
 * /| |                                                                        *
 * / \                                                            qs_scf.F:611 *
 *******************************************************************************


 ===== Routine Calling Stack ===== 

            3 scf_env_do_scf
            2 qs_energies
            1 CP2K

 *******************************************************************************
 *   ___                                                                       *
 *  /   \                                                                      *
 * [ABORT]                                                                     *
 *  \___/     SCF run NOT converged. To continue the calculation regardless,   *
 *    |             please set the keyword IGNORE_CONVERGENCE_FAILURE.         *
 *  O/|                                                                        *
 * /| |                                                                        *
 * / \                                                            qs_scf.F:611 *
 *******************************************************************************


 ===== Routine Calling Stack ===== 

            3 scf_env_do_scf
            2 qs_energies
            1 CP2K

 *******************************************************************************
 *   ___                                                                       *
 *  /   \                                                                      *
 * [ABORT]                                                                     *
 *  \___/     SCF run NOT converged. To continue the calculation regardless,   *
 *    |             please set the keyword IGNORE_CONVERGENCE_FAILURE.         *
 *  O/|                                                                        *
 * /| |                                                                        *
 * / \                                                            qs_scf.F:611 *
 *******************************************************************************


 ===== Routine Calling Stack ===== 

            3 scf_env_do_scf
            2 qs_energies
            1 CP2K

 *******************************************************************************
 *   ___                                                                       *
 *  /   \                                                                      *
 * [ABORT]                                                                     *
 *  \___/     SCF run NOT converged. To continue the calculation regardless,   *
 *    |             please set the keyword IGNORE_CONVERGENCE_FAILURE.         *
 *  O/|                                                                        *
 * /| |                                                                        *
 * / \                                                            qs_scf.F:611 *
 *******************************************************************************


 ===== Routine Calling Stack ===== 

            3 scf_env_do_scf
            2 qs_energies
            1 CP2K

 *******************************************************************************
 *   ___                                                                       *
 *  /   \                                                                      *
 * [ABORT]                                                                     *
 *  \___/     SCF run NOT converged. To continue the calculation regardless,   *
 *    |             please set the keyword IGNORE_CONVERGENCE_FAILURE.         *
 *  O/|                                                                        *
 * /| |                                                                        *
 * / \                                                            qs_scf.F:611 *
 *******************************************************************************


 ===== Routine Calling Stack ===== 

            3 scf_env_do_scf
            2 qs_energies
            1 CP2K

 *******************************************************************************
 *   ___                                                                       *
 *  /   \                                                                      *
 * [ABORT]                                                                     *
 *  \___/     SCF run NOT converged. To continue the calculation regardless,   *
 *    |             please set the keyword IGNORE_CONVERGENCE_FAILURE.         *
 *  O/|                                                                        *
 * /| |                                                                        *
 * / \                                                            qs_scf.F:611 *
 *******************************************************************************


 ===== Routine Calling Stack ===== 

            3 scf_env_do_scf
            2 qs_energies
            1 CP2K

 *******************************************************************************
 *   ___                                                                       *
 *  /   \                                                                      *
 * [ABORT]                                                                     *
 *  \___/     SCF run NOT converged. To continue the calculation regardless,   *
 *    |             please set the keyword IGNORE_CONVERGENCE_FAILURE.         *
 *  O/|                                                                        *
 * /| |                                                                        *
 * / \                                                            qs_scf.F:611 *
 *******************************************************************************


 ===== Routine Calling Stack ===== 

            3 scf_env_do_scf
            2 qs_energies
            1 CP2K

 *******************************************************************************
 *   ___                                                                       *
 *  /   \                                                                      *
 * [ABORT]                                                                     *
 *  \___/     SCF run NOT converged. To continue the calculation regardless,   *
 *    |             please set the keyword IGNORE_CONVERGENCE_FAILURE.         *
 *  O/|                                                                        *
 * /| |                                                                        *
 * / \                                                            qs_scf.F:611 *
 *******************************************************************************


 ===== Routine Calling Stack ===== 

            3 scf_env_do_scf
            2 qs_energies
            1 CP2K

 *******************************************************************************
 *   ___                                                                       *
 *  /   \                                                                      *
 * [ABORT]                                                                     *
 *  \___/     SCF run NOT converged. To continue the calculation regardless,   *
 *    |             please set the keyword IGNORE_CONVERGENCE_FAILURE.         *
 *  O/|                                                                        *
 * /| |                                                                        *
 * / \                                                            qs_scf.F:611 *
 *******************************************************************************


 ===== Routine Calling Stack ===== 

            3 scf_env_do_scf
            2 qs_energies
            1 CP2K

 *******************************************************************************
 *   ___                                                                       *
 *  /   \                                                                      *
 * [ABORT]                                                                     *
 *  \___/     SCF run NOT converged. To continue the calculation regardless,   *
 *    |             please set the keyword IGNORE_CONVERGENCE_FAILURE.         *
 *  O/|                                                                        *
 * /| |                                                                        *
 * / \                                                            qs_scf.F:611 *
 *******************************************************************************


 ===== Routine Calling Stack ===== 

            3 scf_env_do_scf
            2 qs_energies
            1 CP2K

 *******************************************************************************
 *   ___                                                                       *
 *  /   \                                                                      *
 * [ABORT]                                                                     *
 *  \___/     SCF run NOT converged. To continue the calculation regardless,   *
 *    |             please set the keyword IGNORE_CONVERGENCE_FAILURE.         *
 *  O/|                                                                        *
 * /| |                                                                        *
 * / \                                                            qs_scf.F:611 *
 *******************************************************************************


 ===== Routine Calling Stack ===== 

            3 scf_env_do_scf
            2 qs_energies
            1 CP2K

 *******************************************************************************
 *   ___                                                                       *
 *  /   \                                                                      *
 * [ABORT]                                                                     *
 *  \___/     SCF run NOT converged. To continue the calculation regardless,   *
 *    |             please set the keyword IGNORE_CONVERGENCE_FAILURE.         *
 *  O/|                                                                        *
 * /| |                                                                        *
 * / \                                                            qs_scf.F:611 *
 *******************************************************************************


 ===== Routine Calling Stack ===== 

            3 scf_env_do_scf
            2 qs_energies
            1 CP2K

 *******************************************************************************
 *   ___                                                                       *
 *  /   \                                                                      *
 * [ABORT]                                                                     *
 *  \___/     SCF run NOT converged. To continue the calculation regardless,   *
 *    |             please set the keyword IGNORE_CONVERGENCE_FAILURE.         *
 *  O/|                                                                        *
 * /| |                                                                        *
 * / \                                                            qs_scf.F:611 *
 *******************************************************************************


 ===== Routine Calling Stack ===== 

            3 scf_env_do_scf
            2 qs_energies
            1 CP2K
