 DBCSR| CPU Multiplication driver                                           BLAS (U)
 DBCSR| Multrec recursion limit                                              512 (U)
 DBCSR| Multiplication stack size                                           1000 (D)
 DBCSR| Maximum elements for images                                    UNLIMITED (U)
 DBCSR| Multiplicative factor virtual images                                   1 (U)
 DBCSR| Use multiplication densification                                       T (D)
 DBCSR| Multiplication size stacks                                             3 (U)
 DBCSR| Use memory pool for CPU allocation                                     F (U)
 DBCSR| Number of 3D layers                                               SINGLE (U)
 DBCSR| Use MPI memory allocation                                              F (U)
 DBCSR| Use RMA algorithm                                                      F (U)
 DBCSR| Use Communication thread                                               T (U)
 DBCSR| Communication thread load                                             75 (D)
 DBCSR| MPI: My process id                                                     0
 DBCSR| MPI: Number of processes                                              48
 DBCSR| OMP: Current number of threads                                         4
 DBCSR| OMP: Max number of threads                                             4
 DBCSR| Split modifier for TAS multiplication algorithm                  1.0E+00 (U)


  **** **** ******  **  PROGRAM STARTED AT               2025-03-19 00:32:41.551
 ***** ** ***  *** **   PROGRAM STARTED ON                          i03r07c03s03
 **    ****   ******    PROGRAM STARTED BY                               di38fab
 ***** **    ** ** **   PROGRAM PROCESS ID                               2379480
  **** **  *******  **  PROGRAM STARTED IN /hppfs/scratch/04/di38fab/05_MOL/W4-1
                                           1+ALK/nh/aug-cc-pVQZ/GW+BSE

 CP2K| version string:                 CP2K version 2025.1 (Development Version)
 CP2K| source code revision number:                                  git:d2e611a
 CP2K| cp2kflags: omp libint fftw3 libxc parallel scalapack max_contr=4         
 CP2K| is freely available from                            https://www.cp2k.org/
 CP2K| Program compiled at                       Thu 06 Mar 2025 05:09:20 PM CET
 CP2K| Program compiled on                                               login02
 CP2K| Program compiled for                                        Supermuc-foss
 CP2K| Data directory path                  /hppfs/work/pn36zo/di38fab/cp2k/data
 CP2K| Input file name                                                    GW.inp

 GLOBAL| Force Environment number                                              1
 GLOBAL| Basis set file name            /hppfs/scratch/04/di38fab/04_TMD/BASIS_A
 GLOBAL| Potential file name            /hppfs/work/pn36zo/di38fab/cp2k/data/ALL
 GLOBAL| MM Potential file name                                     MM_POTENTIAL
 GLOBAL| Coordinate file name                                      __STD_INPUT__
 GLOBAL| Method name                                                        CP2K
 GLOBAL| Project name                                                       MoS2
 GLOBAL| Run type                                                         ENERGY
 GLOBAL| FFT library                                                       FFTW3
 GLOBAL| Diagonalization library                                       ScaLAPACK
 GLOBAL| DGEMM library                                                      BLAS
 GLOBAL| Orthonormality check for eigenvectors                          DISABLED
 GLOBAL| Matrix multiplication library                                 ScaLAPACK
 GLOBAL| All-to-all communication in single precision                          F
 GLOBAL| FFTs using library dependent lengths                                  F
 GLOBAL| Grid backend                                                       AUTO
 GLOBAL| Global print level                                               MEDIUM
 GLOBAL| MPI I/O enabled                                                       T
 GLOBAL| Total number of message passing processes                            48
 GLOBAL| Number of threads for this process                                    4
 GLOBAL| This output is from process                                           0
 GLOBAL| OpenMP stack size per thread (OMP_STACKSIZE)                    default
 GLOBAL| CPU model name             Intel(R) Xeon(R) Platinum 8174 CPU @ 3.10GHz

 MEMORY| system memory details [Kb]
 MEMORY|                        rank 0           min           max       average
 MEMORY| MemTotal             98436664      98436664      98436664      98436664
 MEMORY| MemFree              83942332      83751636      83942332      83857946
 MEMORY| Buffers                     0             0             0             0
 MEMORY| Cached                2414252       2399124       2414564       2410415
 MEMORY| Slab                  1224724       1224724       1253716       1241459
 MEMORY| SReclaimable           267620        264388        279608        271499
 MEMORY| MemLikelyFree        86624204      86430368      86624204      86539860


 *** Fundamental physical constants (SI units) ***

 *** Literature: B. J. Mohr and B. N. Taylor,
 ***             CODATA recommended values of the fundamental physical
 ***             constants: 2006, Web Version 5.1
 ***             http://physics.nist.gov/constants

 Speed of light in vacuum [m/s]                             2.99792458000000E+08
 Magnetic constant or permeability of vacuum [N/A**2]       1.25663706143592E-06
 Electric constant or permittivity of vacuum [F/m]          8.85418781762039E-12
 Planck constant (h) [J*s]                                  6.62606896000000E-34
 Planck constant (h-bar) [J*s]                              1.05457162825177E-34
 Elementary charge [C]                                      1.60217648700000E-19
 Electron mass [kg]                                         9.10938215000000E-31
 Electron g factor [ ]                                     -2.00231930436220E+00
 Proton mass [kg]                                           1.67262163700000E-27
 Fine-structure constant                                    7.29735253760000E-03
 Rydberg constant [1/m]                                     1.09737315685270E+07
 Avogadro constant [1/mol]                                  6.02214179000000E+23
 Boltzmann constant [J/K]                                   1.38065040000000E-23
 Atomic mass unit [kg]                                      1.66053878200000E-27
 Bohr radius [m]                                            5.29177208590000E-11

 *** Conversion factors ***

 [u] -> [a.u.]                                              1.82288848426455E+03
 [Angstrom] -> [Bohr] = [a.u.]                              1.88972613288564E+00
 [a.u.] = [Bohr] -> [Angstrom]                              5.29177208590000E-01
 [a.u.] -> [s]                                              2.41888432650478E-17
 [a.u.] -> [fs]                                             2.41888432650478E-02
 [a.u.] -> [J]                                              4.35974393937059E-18
 [a.u.] -> [N]                                              8.23872205491840E-08
 [a.u.] -> [K]                                              3.15774647902944E+05
 [a.u.] -> [kJ/mol]                                         2.62549961709828E+03
 [a.u.] -> [kcal/mol]                                       6.27509468713739E+02
 [a.u.] -> [Pa]                                             2.94210107994716E+13
 [a.u.] -> [bar]                                            2.94210107994716E+08
 [a.u.] -> [atm]                                            2.90362800883016E+08
 [a.u.] -> [eV]                                             2.72113838565563E+01
 [a.u.] -> [Hz]                                             6.57968392072181E+15
 [a.u.] -> [1/cm] (wave numbers)                            2.19474631370540E+05
 [a.u./Bohr**2] -> [1/cm]                                   5.14048714338585E+03
 

 CELL_TOP| Volume [angstrom^3]:                                     27000.000000
 CELL_TOP| Vector a [angstrom    30.000     0.000     0.000   |a| =    30.000000
 CELL_TOP| Vector b [angstrom     0.000    30.000     0.000   |b| =    30.000000
 CELL_TOP| Vector c [angstrom     0.000     0.000    30.000   |c| =    30.000000
 CELL_TOP| Angle (b,c), alpha [degree]:                                90.000000
 CELL_TOP| Angle (a,c), beta  [degree]:                                90.000000
 CELL_TOP| Angle (a,b), gamma [degree]:                                90.000000
 CELL_TOP| Numerically orthorhombic:                                         YES
 CELL_TOP| Periodicity                                                      NONE

 GENERATE|  Preliminary Number of Bonds generated:                             0
 GENERATE|  Achieved consistency in connectivity generation.

 CELL| Volume [angstrom^3]:                                         27000.000000
 CELL| Vector a [angstrom]:      30.000     0.000     0.000   |a| =    30.000000
 CELL| Vector b [angstrom]:       0.000    30.000     0.000   |b| =    30.000000
 CELL| Vector c [angstrom]:       0.000     0.000    30.000   |c| =    30.000000
 CELL| Angle (b,c), alpha [degree]:                                    90.000000
 CELL| Angle (a,c), beta  [degree]:                                    90.000000
 CELL| Angle (a,b), gamma [degree]:                                    90.000000
 CELL| Numerically orthorhombic:                                             YES
 CELL| Periodicity                                                          NONE

 CELL_REF| Volume [angstrom^3]:                                     27000.000000
 CELL_REF| Vector a [angstrom    30.000     0.000     0.000   |a| =    30.000000
 CELL_REF| Vector b [angstrom     0.000    30.000     0.000   |b| =    30.000000
 CELL_REF| Vector c [angstrom     0.000     0.000    30.000   |c| =    30.000000
 CELL_REF| Angle (b,c), alpha [degree]:                                90.000000
 CELL_REF| Angle (a,c), beta  [degree]:                                90.000000
 CELL_REF| Angle (a,b), gamma [degree]:                                90.000000
 CELL_REF| Numerically orthorhombic:                                         YES
 CELL_REF| Periodicity                                                      NONE

 *******************************************************************************
 *******************************************************************************
 **                                                                           **
 **     #####                         ##              ##                      **
 **    ##   ##            ##          ##              ##                      **
 **   ##     ##                       ##            ######                    **
 **   ##     ##  ##   ##  ##   #####  ##  ##   ####   ##    #####    #####    **
 **   ##     ##  ##   ##  ##  ##      ## ##   ##      ##   ##   ##  ##   ##   **
 **   ##  ## ##  ##   ##  ##  ##      ####     ###    ##   ######   ######    **
 **    ##  ###   ##   ##  ##  ##      ## ##      ##   ##   ##       ##        **
 **     #######   #####   ##   #####  ##  ##  ####    ##    #####   ##        **
 **           ##                                                    ##        **
 **                                                                           **
 **                                                ... make the atoms dance   **
 **                                                                           **
 **            Copyright (C) by CP2K developers group (2000-2025)             **
 **                      J. Chem. Phys. 152, 194103 (2020)                    **
 **                                                                           **
 *******************************************************************************

 DFT| Spin restricted Kohn-Sham (RKS) calculation                            RKS
 DFT| Multiplicity                                                             1
 DFT| Number of spin states                                                    1
 DFT| Charge                                                                   0
 DFT| Self-interaction correction (SIC)                                       NO
 DFT| Cutoffs: density                                              1.000000E-10
 DFT|          gradient                                             1.000000E-10
 DFT|          tau                                                  1.000000E-10
 DFT|          cutoff_smoothing_range                               0.000000E+00
 DFT| XC density smoothing                                                  NONE
 DFT| XC derivatives                                                          PW

 FUNCTIONAL| PBE:
 FUNCTIONAL| J.P.Perdew, K.Burke, M.Ernzerhof, Phys. Rev. Letter, vol. 77, n 18,
 FUNCTIONAL|  pp. 3865-3868, (1996)sx=0.750sc=1.000{spin unpolarized}           


 QS| Method:                                                                GAPW
 QS| Density plane wave grid type                        NON-SPHERICAL FULLSPACE
 QS| Number of grid levels:                                                    4
 QS| Density cutoff [a.u.]:                                                250.0
 QS| Multi grid cutoff [a.u.]: 1) grid level                               250.0
 QS|                           2) grid level                                83.3
 QS|                           3) grid level                                27.8
 QS|                           4) grid level                                 9.3
 QS| Grid level progression factor:                                          3.0
 QS| Relative density cutoff [a.u.]:                                        50.0
 QS| Interaction thresholds: eps_pgf_orb:                                1.0E-12
 QS|                         eps_filter_matrix:                          0.0E+00
 QS|                         eps_core_charge:                            1.0E-14
 QS|                         eps_rho_gspace:                             1.0E-12
 QS|                         eps_rho_rspace:                             1.0E-12
 QS|                         eps_gvg_rspace:                             1.0E-06
 QS|                         eps_ppl:                                    1.0E-02
 QS|                         eps_ppnl:                                   1.0E-08
 QS| GAPW|      One center basis from orbital basis primitives
 QS| GAPW|                   eps_fit:                                    1.0E-04
 QS| GAPW|                   eps_iso:                                    1.0E-12
 QS| GAPW|                   eps_svd:                                    1.0E-08
 QS| GAPW|                   eps_cpc:                                    1.0E-12
 QS| GAPW|   atom-r-grid: quadrature:                                     GC_LOG
 QS| GAPW|      atom-s-grid:  max l :                                          8
 QS| GAPW|      max_l_rho0 :                                                   2


 ATOMIC KIND INFORMATION

  1. Atomic kind: N                                     Number of atoms:       1

     Orbital Basis Set                                               aug-cc-pVQZ

       Number of orbital shell sets:                                          10
       Number of orbital shells:                                              20
       Number of primitive Cartesian functions:                               29
       Number of Cartesian basis functions:                                  105
       Number of spherical basis functions:                                   80
       Norm type:                                                              2

       Normalised Cartesian orbitals:

                        Set   Shell   Orbital            Exponent    Coefficient

                          1       1    1px               0.044020       0.028741
                          1       1    1py               0.044020       0.028741
                          1       1    1pz               0.044020       0.028741

                          2       1    1s                0.054640       0.080546

                          3       1    1dx2              0.111000       0.035134
                          3       1    1dxy              0.111000       0.060853
                          3       1    1dxz              0.111000       0.060853
                          3       1    1dy2              0.111000       0.035134
                          3       1    1dyz              0.111000       0.060853
                          3       1    1dz2              0.111000       0.035134

                          4       1    1px              49.330000       0.000000
                                                        11.370000       0.000000
                                                         3.435000       0.000000
                                                         1.182000       1.756758
                                                         0.417300       0.000000
                                                         0.142800       0.000000
                          4       1    1py              49.330000       0.000000
                                                        11.370000       0.000000
                                                         3.435000       0.000000
                                                         1.182000       1.756758
                                                         0.417300       0.000000
                                                         0.142800       0.000000
                          4       1    1pz              49.330000       0.000000
                                                        11.370000       0.000000
                                                         3.435000       0.000000
                                                         1.182000       1.756758
                                                         0.417300       0.000000
                                                         0.142800       0.000000

                          4       2    2px              49.330000       1.031073
                                                        11.370000       1.129768
                                                         3.435000       0.993381
                                                         1.182000       0.612971
                                                         0.417300       0.219425
                                                         0.142800       0.030646
                          4       2    2py              49.330000       1.031073
                                                        11.370000       1.129768
                                                         3.435000       0.993381
                                                         1.182000       0.612971
                                                         0.417300       0.219425
                                                         0.142800       0.030646
                          4       2    2pz              49.330000       1.031073
                                                        11.370000       1.129768
                                                         3.435000       0.993381
                                                         1.182000       0.612971
                                                         0.417300       0.219425
                                                         0.142800       0.030646

                          4       3    3px              49.330000       0.000000
                                                        11.370000       0.000000
                                                         3.435000       0.000000
                                                         1.182000       0.000000
                                                         0.417300       0.478080
                                                         0.142800       0.000000
                          4       3    3py              49.330000       0.000000
                                                        11.370000       0.000000
                                                         3.435000       0.000000
                                                         1.182000       0.000000
                                                         0.417300       0.478080
                                                         0.142800       0.000000
                          4       3    3pz              49.330000       0.000000
                                                        11.370000       0.000000
                                                         3.435000       0.000000
                                                         1.182000       0.000000
                                                         0.417300       0.478080
                                                         0.142800       0.000000

                          4       4    4px              49.330000       0.000000
                                                        11.370000       0.000000
                                                         3.435000       0.000000
                                                         1.182000       0.000000
                                                         0.417300       0.000000
                                                         0.142800       0.125127
                          4       4    4py              49.330000       0.000000
                                                        11.370000       0.000000
                                                         3.435000       0.000000
                                                         1.182000       0.000000
                                                         0.417300       0.000000
                                                         0.142800       0.125127
                          4       4    4pz              49.330000       0.000000
                                                        11.370000       0.000000
                                                         3.435000       0.000000
                                                         1.182000       0.000000
                                                         0.417300       0.000000
                                                         0.142800       0.125127

                          5       1    1s            45840.000000       0.205414
                                                      6868.000000       0.385524
                                                      1563.000000       0.664193
                                                       442.400000       1.067821
                                                       144.300000       1.576994
                                                        52.180000       2.031073
                                                        20.340000       2.079662
                                                         8.381000       1.396111
                                                         3.529000       0.399383
                                                         1.054000       0.012576
                                                         0.411800      -0.001006
                                                         0.155200       0.000168

                          5       2    2s            45840.000000       0.000000
                                                      6868.000000       0.000000
                                                      1563.000000       0.000000
                                                       442.400000       0.000000
                                                       144.300000       0.000000
                                                        52.180000       0.000000
                                                        20.340000       0.000000
                                                         8.381000       0.000000
                                                         3.529000       0.000000
                                                         1.054000       0.741379
                                                         0.411800       0.000000
                                                         0.155200       0.000000

                          5       3    3s            45840.000000       0.000000
                                                      6868.000000       0.000000
                                                      1563.000000       0.000000
                                                       442.400000       0.000000
                                                       144.300000       0.000000
                                                        52.180000       0.000000
                                                        20.340000       0.000000
                                                         8.381000       0.000000
                                                         3.529000       0.000000
                                                         1.054000       0.000000
                                                         0.411800       0.366374
                                                         0.155200       0.000000

                          5       4    4s            45840.000000      -0.044655
                                                      6868.000000      -0.085493
                                                      1563.000000      -0.145985
                                                       442.400000      -0.239112
                                                       144.300000      -0.355066
                                                        52.180000      -0.489660
                                                        20.340000      -0.546615
                                                         8.381000      -0.515083
                                                         3.529000      -0.213527
                                                         1.054000       0.207526
                                                         0.411800       0.214505
                                                         0.155200       0.050054

                          5       5    5s            45840.000000       0.000000
                                                      6868.000000       0.000000
                                                      1563.000000       0.000000
                                                       442.400000       0.000000
                                                       144.300000       0.000000
                                                        52.180000       0.000000
                                                        20.340000       0.000000
                                                         8.381000       0.000000
                                                         3.529000       0.000000
                                                         1.054000       0.000000
                                                         0.411800       0.000000
                                                         0.155200       0.176230

                          6       1    1fx3              0.245000       0.062170
                          6       1    1fx2y             0.245000       0.139015
                          6       1    1fx2z             0.245000       0.139015
                          6       1    1fxy2             0.245000       0.139015
                          6       1    1fxyz             0.245000       0.240782
                          6       1    1fxz2             0.245000       0.139015
                          6       1    1fy3              0.245000       0.062170
                          6       1    1fy2z             0.245000       0.139015
                          6       1    1fyz2             0.245000       0.139015
                          6       1    1fz3              0.245000       0.062170

                          7       1    1dx2              2.837000      10.207357
                                                         0.968000       0.000000
                                                         0.335000       0.000000
                          7       1    1dxy              2.837000      17.679661
                                                         0.968000       0.000000
                                                         0.335000       0.000000
                          7       1    1dxz              2.837000      17.679661
                                                         0.968000       0.000000
                                                         0.335000       0.000000
                          7       1    1dy2              2.837000      10.207357
                                                         0.968000       0.000000
                                                         0.335000       0.000000
                          7       1    1dyz              2.837000      17.679661
                                                         0.968000       0.000000
                                                         0.335000       0.000000
                          7       1    1dz2              2.837000      10.207357
                                                         0.968000       0.000000
                                                         0.335000       0.000000

                          7       2    2dx2              2.837000       0.000000
                                                         0.968000       1.554860
                                                         0.335000       0.000000
                          7       2    2dxy              2.837000       0.000000
                                                         0.968000       2.693097
                                                         0.335000       0.000000
                          7       2    2dxz              2.837000       0.000000
                                                         0.968000       2.693097
                                                         0.335000       0.000000
                          7       2    2dy2              2.837000       0.000000
                                                         0.968000       1.554860
                                                         0.335000       0.000000
                          7       2    2dyz              2.837000       0.000000
                                                         0.968000       2.693097
                                                         0.335000       0.000000
                          7       2    2dz2              2.837000       0.000000
                                                         0.968000       1.554860
                                                         0.335000       0.000000

                          7       3    3dx2              2.837000       0.000000
                                                         0.968000       0.000000
                                                         0.335000       0.242794
                          7       3    3dxy              2.837000       0.000000
                                                         0.968000       0.000000
                                                         0.335000       0.420531
                          7       3    3dxz              2.837000       0.000000
                                                         0.968000       0.000000
                                                         0.335000       0.420531
                          7       3    3dy2              2.837000       0.000000
                                                         0.968000       0.000000
                                                         0.335000       0.242794
                          7       3    3dyz              2.837000       0.000000
                                                         0.968000       0.000000
                                                         0.335000       0.420531
                          7       3    3dz2              2.837000       0.000000
                                                         0.968000       0.000000
                                                         0.335000       0.242794

                          8       1    1gx4              0.559000       0.224811
                          8       1    1gx3y             0.559000       0.594794
                          8       1    1gx3z             0.559000       0.594794
                          8       1    1gx2y2            0.559000       0.767876
                          8       1    1gx2yz            0.559000       1.330001
                          8       1    1gx2z2            0.559000       0.767876
                          8       1    1gxy3             0.559000       0.594794
                          8       1    1gxy2z            0.559000       1.330001
                          8       1    1gxyz2            0.559000       1.330001
                          8       1    1gxz3             0.559000       0.594794
                          8       1    1gy4              0.559000       0.224811
                          8       1    1gy3z             0.559000       0.594794
                          8       1    1gy2z2            0.559000       0.767876
                          8       1    1gyz3             0.559000       0.594794
                          8       1    1gz4              0.559000       0.224811

                          9       1    1fx3              2.027000       7.217310
                                                         0.685000       0.000000
                          9       1    1fx2y             2.027000      16.138397
                                                         0.685000       0.000000
                          9       1    1fx2z             2.027000      16.138397
                                                         0.685000       0.000000
                          9       1    1fxy2             2.027000      16.138397
                                                         0.685000       0.000000
                          9       1    1fxyz             2.027000      27.952523
                                                         0.685000       0.000000
                          9       1    1fxz2             2.027000      16.138397
                                                         0.685000       0.000000
                          9       1    1fy3              2.027000       7.217310
                                                         0.685000       0.000000
                          9       1    1fy2z             2.027000      16.138397
                                                         0.685000       0.000000
                          9       1    1fyz2             2.027000      16.138397
                                                         0.685000       0.000000
                          9       1    1fz3              2.027000       7.217310
                                                         0.685000       0.000000

                          9       2    2fx3              2.027000       0.000000
                                                         0.685000       0.628432
                          9       2    2fx2y             2.027000       0.000000
                                                         0.685000       1.405216
                          9       2    2fx2z             2.027000       0.000000
                                                         0.685000       1.405216
                          9       2    2fxy2             2.027000       0.000000
                                                         0.685000       1.405216
                          9       2    2fxyz             2.027000       0.000000
                                                         0.685000       2.433906
                          9       2    2fxz2             2.027000       0.000000
                                                         0.685000       1.405216
                          9       2    2fy3              2.027000       0.000000
                                                         0.685000       0.628432
                          9       2    2fy2z             2.027000       0.000000
                                                         0.685000       1.405216
                          9       2    2fyz2             2.027000       0.000000
                                                         0.685000       1.405216
                          9       2    2fz3              2.027000       0.000000
                                                         0.685000       0.628432

                         10       1    1gx4              1.427000       2.958703
                         10       1    1gx3y             1.427000       7.827992
                         10       1    1gx3z             1.427000       7.827992
                         10       1    1gx2y2            1.427000      10.105894
                         10       1    1gx2yz            1.427000      17.503922
                         10       1    1gx2z2            1.427000      10.105894
                         10       1    1gxy3             1.427000       7.827992
                         10       1    1gxy2z            1.427000      17.503922
                         10       1    1gxyz2            1.427000      17.503922
                         10       1    1gxz3             1.427000       7.827992
                         10       1    1gy4              1.427000       2.958703
                         10       1    1gy3z             1.427000       7.827992
                         10       1    1gy2z2            1.427000      10.105894
                         10       1    1gyz3             1.427000       7.827992
                         10       1    1gz4              1.427000       2.958703

     RI Auxiliary Basis Set                                    aug-cc-pVQZ-OPTRI

       Number of orbital shell sets:                                          19
       Number of orbital shells:                                              19
       Number of primitive Cartesian functions:                               19
       Number of Cartesian basis functions:                                  124
       Number of spherical basis functions:                                   89
       Norm type:                                                              2

       Normalised Cartesian orbitals:

                        Set   Shell   Orbital            Exponent    Coefficient

                          1       1    1s                0.082178       0.109390

                          2       1    1px               0.086781       0.067138
                          2       1    1py               0.086781       0.067138
                          2       1    1pz               0.086781       0.067138

                          3       1    1dx2              0.164994       0.070304
                          3       1    1dxy              0.164994       0.121770
                          3       1    1dxz              0.164994       0.121770
                          3       1    1dy2              0.164994       0.070304
                          3       1    1dyz              0.164994       0.121770
                          3       1    1dz2              0.164994       0.070304

                          4       1    1px               0.213400       0.206744
                          4       1    1py               0.213400       0.206744
                          4       1    1pz               0.213400       0.206744

                          5       1    1s                0.230143       0.236815

                          6       1    1fx3              0.366896       0.154233
                          6       1    1fx2y             0.366896       0.344875
                          6       1    1fx2z             0.366896       0.344875
                          6       1    1fxy2             0.366896       0.344875
                          6       1    1fxyz             0.366896       0.597340
                          6       1    1fxz2             0.366896       0.344875
                          6       1    1fy3              0.366896       0.154233
                          6       1    1fy2z             0.366896       0.344875
                          6       1    1fyz2             0.366896       0.344875
                          6       1    1fz3              0.366896       0.154233

                          7       1    1dx2              0.501047       0.491130
                          7       1    1dxy              0.501047       0.850663
                          7       1    1dxz              0.501047       0.850663
                          7       1    1dy2              0.501047       0.491130
                          7       1    1dyz              0.501047       0.850663
                          7       1    1dz2              0.501047       0.491130

                          8       1    1px               0.624364       0.791111
                          8       1    1py               0.624364       0.791111
                          8       1    1pz               0.624364       0.791111

                          9       1    1s                0.697534       0.543981

                         10       1    1gx4              0.954639       0.979475
                         10       1    1gx3y             0.954639       2.591446
                         10       1    1gx3z             0.954639       2.591446
                         10       1    1gx2y2            0.954639       3.345542
                         10       1    1gx2yz            0.954639       5.794650
                         10       1    1gx2z2            0.954639       3.345542
                         10       1    1gxy3             0.954639       2.591446
                         10       1    1gxy2z            0.954639       5.794650
                         10       1    1gxyz2            0.954639       5.794650
                         10       1    1gxz3             0.954639       2.591446
                         10       1    1gy4              0.954639       0.979475
                         10       1    1gy3z             0.954639       2.591446
                         10       1    1gy2z2            0.954639       3.345542
                         10       1    1gyz3             0.954639       2.591446
                         10       1    1gz4              0.954639       0.979475

                         11       1    1fx3              1.025181       1.556882
                         11       1    1fx2y             1.025181       3.481294
                         11       1    1fx2z             1.025181       3.481294
                         11       1    1fxy2             1.025181       3.481294
                         11       1    1fxyz             1.025181       6.029778
                         11       1    1fxz2             1.025181       3.481294
                         11       1    1fy3              1.025181       1.556882
                         11       1    1fy2z             1.025181       3.481294
                         11       1    1fyz2             1.025181       3.481294
                         11       1    1fz3              1.025181       1.556882

                         12       1    1dx2              1.439989       3.115574
                         12       1    1dxy              1.439989       5.396332
                         12       1    1dxz              1.439989       5.396332
                         12       1    1dy2              1.439989       3.115574
                         12       1    1dyz              1.439989       5.396332
                         12       1    1dz2              1.439989       3.115574

                         13       1    1hx5              1.731607       4.418802
                         13       1    1hx4y             1.731607      13.256405
                         13       1    1hx4z             1.731607      13.256405
                         13       1    1hx3y2            1.731607      20.249493
                         13       1    1hx3yz            1.731607      35.073150
                         13       1    1hx3z2            1.731607      20.249493
                         13       1    1hx2y3            1.731607      20.249493
                         13       1    1hx2y2z           1.731607      45.279242
                         13       1    1hx2yz2           1.731607      45.279242
                         13       1    1hx2z3            1.731607      20.249493
                         13       1    1hxy4             1.731607      13.256405
                         13       1    1hxy3z            1.731607      35.073150
                         13       1    1hxy2z2           1.731607      45.279242
                         13       1    1hxyz3            1.731607      35.073150
                         13       1    1hxz4             1.731607      13.256405
                         13       1    1hy5              1.731607       4.418802
                         13       1    1hy4z             1.731607      13.256405
                         13       1    1hy3z2            1.731607      20.249493
                         13       1    1hy2z3            1.731607      20.249493
                         13       1    1hyz4             1.731607      13.256405
                         13       1    1hz5              1.731607       4.418802

                         14       1    1px               1.751644       2.872416
                         14       1    1py               1.751644       2.872416
                         14       1    1pz               1.751644       2.872416

                         15       1    1s                2.722026       1.510356

                         16       1    1gx4              3.005374      22.943326
                         16       1    1gx3y             3.005374      60.702334
                         16       1    1gx3z             3.005374      60.702334
                         16       1    1gx2y2            3.005374      78.366376
                         16       1    1gx2yz            3.005374     135.734545
                         16       1    1gx2z2            3.005374      78.366376
                         16       1    1gxy3             3.005374      60.702334
                         16       1    1gxy2z            3.005374     135.734545
                         16       1    1gxyz2            3.005374     135.734545
                         16       1    1gxz3             3.005374      60.702334
                         16       1    1gy4              3.005374      22.943326
                         16       1    1gy3z             3.005374      60.702334
                         16       1    1gy2z2            3.005374      78.366376
                         16       1    1gyz3             3.005374      60.702334
                         16       1    1gz4              3.005374      22.943326

                         17       1    1fx3              4.926743      53.237082
                         17       1    1fx2y             4.926743     119.041734
                         17       1    1fx2z             4.926743     119.041734
                         17       1    1fxy2             4.926743     119.041734
                         17       1    1fxyz             4.926743     206.186332
                         17       1    1fxz2             4.926743     119.041734
                         17       1    1fy3              4.926743      53.237082
                         17       1    1fy2z             4.926743     119.041734
                         17       1    1fyz2             4.926743     119.041734
                         17       1    1fz3              4.926743      53.237082

                         18       1    1px               5.121619      10.982448
                         18       1    1py               5.121619      10.982448
                         18       1    1pz               5.121619      10.982448

                         19       1    1dx2              7.494220      55.870264
                         19       1    1dxy              7.494220      96.770136
                         19       1    1dxz              7.494220      96.770136
                         19       1    1dy2              7.494220      55.870264
                         19       1    1dyz              7.494220      96.770136
                         19       1    1dz2              7.494220      55.870264

       Atomic covalent radius [Angstrom]:                                  0.750

       Atomic van der Waals radius [Angstrom]:                             1.550

     The atoms of this atomic kind are PAW atoms (GAPW):
       Hard Gaussian function radius:                                      1.512
       Rho0 radius:                                                        1.512
       Maximum GTO radius used for PAW projector construction:            24.566

     GAPW Soft Basis Set                                        aug-cc-pVQZ_soft

       Number of orbital shell sets:                                          10
       Number of orbital shells:                                              20
       Number of primitive Cartesian functions:                               19
       Number of Cartesian basis functions:                                  105
       Number of spherical basis functions:                                   80
       Norm type:                                                              2

       Normalised Cartesian orbitals:

                        Set   Shell   Orbital            Exponent    Coefficient

                          1       1    1px               0.044020       0.028741
                          1       1    1py               0.044020       0.028741
                          1       1    1pz               0.044020       0.028741

                          2       1    1s                0.054640       0.080546

                          3       1    1dx2              0.111000       0.035134
                          3       1    1dxy              0.111000       0.060853
                          3       1    1dxz              0.111000       0.060853
                          3       1    1dy2              0.111000       0.035134
                          3       1    1dyz              0.111000       0.060853
                          3       1    1dz2              0.111000       0.035134

                          4       1    1px               3.435000       0.000000
                                                         1.182000       1.756758
                                                         0.417300       0.000000
                                                         0.142800       0.000000
                          4       1    1py               3.435000       0.000000
                                                         1.182000       1.756758
                                                         0.417300       0.000000
                                                         0.142800       0.000000
                          4       1    1pz               3.435000       0.000000
                                                         1.182000       1.756758
                                                         0.417300       0.000000
                                                         0.142800       0.000000

                          4       2    2px               3.435000       0.993381
                                                         1.182000       0.612971
                                                         0.417300       0.219425
                                                         0.142800       0.030646
                          4       2    2py               3.435000       0.993381
                                                         1.182000       0.612971
                                                         0.417300       0.219425
                                                         0.142800       0.030646
                          4       2    2pz               3.435000       0.993381
                                                         1.182000       0.612971
                                                         0.417300       0.219425
                                                         0.142800       0.030646

                          4       3    3px               3.435000       0.000000
                                                         1.182000       0.000000
                                                         0.417300       0.478080
                                                         0.142800       0.000000
                          4       3    3py               3.435000       0.000000
                                                         1.182000       0.000000
                                                         0.417300       0.478080
                                                         0.142800       0.000000
                          4       3    3pz               3.435000       0.000000
                                                         1.182000       0.000000
                                                         0.417300       0.478080
                                                         0.142800       0.000000

                          4       4    4px               3.435000       0.000000
                                                         1.182000       0.000000
                                                         0.417300       0.000000
                                                         0.142800       0.125127
                          4       4    4py               3.435000       0.000000
                                                         1.182000       0.000000
                                                         0.417300       0.000000
                                                         0.142800       0.125127
                          4       4    4pz               3.435000       0.000000
                                                         1.182000       0.000000
                                                         0.417300       0.000000
                                                         0.142800       0.125127

                          5       1    1s                3.529000       0.399383
                                                         1.054000       0.012576
                                                         0.411800      -0.001006
                                                         0.155200       0.000168

                          5       2    2s                3.529000       0.000000
                                                         1.054000       0.741379
                                                         0.411800       0.000000
                                                         0.155200       0.000000

                          5       3    3s                3.529000       0.000000
                                                         1.054000       0.000000
                                                         0.411800       0.366374
                                                         0.155200       0.000000

                          5       4    4s                3.529000      -0.213527
                                                         1.054000       0.207526
                                                         0.411800       0.214505
                                                         0.155200       0.050054

                          5       5    5s                3.529000       0.000000
                                                         1.054000       0.000000
                                                         0.411800       0.000000
                                                         0.155200       0.176230

                          6       1    1fx3              0.245000       0.062170
                          6       1    1fx2y             0.245000       0.139015
                          6       1    1fx2z             0.245000       0.139015
                          6       1    1fxy2             0.245000       0.139015
                          6       1    1fxyz             0.245000       0.240782
                          6       1    1fxz2             0.245000       0.139015
                          6       1    1fy3              0.245000       0.062170
                          6       1    1fy2z             0.245000       0.139015
                          6       1    1fyz2             0.245000       0.139015
                          6       1    1fz3              0.245000       0.062170

                          7       1    1dx2              2.837000      10.207357
                                                         0.968000       0.000000
                                                         0.335000       0.000000
                          7       1    1dxy              2.837000      17.679661
                                                         0.968000       0.000000
                                                         0.335000       0.000000
                          7       1    1dxz              2.837000      17.679661
                                                         0.968000       0.000000
                                                         0.335000       0.000000
                          7       1    1dy2              2.837000      10.207357
                                                         0.968000       0.000000
                                                         0.335000       0.000000
                          7       1    1dyz              2.837000      17.679661
                                                         0.968000       0.000000
                                                         0.335000       0.000000
                          7       1    1dz2              2.837000      10.207357
                                                         0.968000       0.000000
                                                         0.335000       0.000000

                          7       2    2dx2              2.837000       0.000000
                                                         0.968000       1.554860
                                                         0.335000       0.000000
                          7       2    2dxy              2.837000       0.000000
                                                         0.968000       2.693097
                                                         0.335000       0.000000
                          7       2    2dxz              2.837000       0.000000
                                                         0.968000       2.693097
                                                         0.335000       0.000000
                          7       2    2dy2              2.837000       0.000000
                                                         0.968000       1.554860
                                                         0.335000       0.000000
                          7       2    2dyz              2.837000       0.000000
                                                         0.968000       2.693097
                                                         0.335000       0.000000
                          7       2    2dz2              2.837000       0.000000
                                                         0.968000       1.554860
                                                         0.335000       0.000000

                          7       3    3dx2              2.837000       0.000000
                                                         0.968000       0.000000
                                                         0.335000       0.242794
                          7       3    3dxy              2.837000       0.000000
                                                         0.968000       0.000000
                                                         0.335000       0.420531
                          7       3    3dxz              2.837000       0.000000
                                                         0.968000       0.000000
                                                         0.335000       0.420531
                          7       3    3dy2              2.837000       0.000000
                                                         0.968000       0.000000
                                                         0.335000       0.242794
                          7       3    3dyz              2.837000       0.000000
                                                         0.968000       0.000000
                                                         0.335000       0.420531
                          7       3    3dz2              2.837000       0.000000
                                                         0.968000       0.000000
                                                         0.335000       0.242794

                          8       1    1gx4              0.559000       0.224811
                          8       1    1gx3y             0.559000       0.594794
                          8       1    1gx3z             0.559000       0.594794
                          8       1    1gx2y2            0.559000       0.767876
                          8       1    1gx2yz            0.559000       1.330001
                          8       1    1gx2z2            0.559000       0.767876
                          8       1    1gxy3             0.559000       0.594794
                          8       1    1gxy2z            0.559000       1.330001
                          8       1    1gxyz2            0.559000       1.330001
                          8       1    1gxz3             0.559000       0.594794
                          8       1    1gy4              0.559000       0.224811
                          8       1    1gy3z             0.559000       0.594794
                          8       1    1gy2z2            0.559000       0.767876
                          8       1    1gyz3             0.559000       0.594794
                          8       1    1gz4              0.559000       0.224811

                          9       1    1fx3              2.027000       7.217310
                                                         0.685000       0.000000
                          9       1    1fx2y             2.027000      16.138397
                                                         0.685000       0.000000
                          9       1    1fx2z             2.027000      16.138397
                                                         0.685000       0.000000
                          9       1    1fxy2             2.027000      16.138397
                                                         0.685000       0.000000
                          9       1    1fxyz             2.027000      27.952523
                                                         0.685000       0.000000
                          9       1    1fxz2             2.027000      16.138397
                                                         0.685000       0.000000
                          9       1    1fy3              2.027000       7.217310
                                                         0.685000       0.000000
                          9       1    1fy2z             2.027000      16.138397
                                                         0.685000       0.000000
                          9       1    1fyz2             2.027000      16.138397
                                                         0.685000       0.000000
                          9       1    1fz3              2.027000       7.217310
                                                         0.685000       0.000000

                          9       2    2fx3              2.027000       0.000000
                                                         0.685000       0.628432
                          9       2    2fx2y             2.027000       0.000000
                                                         0.685000       1.405216
                          9       2    2fx2z             2.027000       0.000000
                                                         0.685000       1.405216
                          9       2    2fxy2             2.027000       0.000000
                                                         0.685000       1.405216
                          9       2    2fxyz             2.027000       0.000000
                                                         0.685000       2.433906
                          9       2    2fxz2             2.027000       0.000000
                                                         0.685000       1.405216
                          9       2    2fy3              2.027000       0.000000
                                                         0.685000       0.628432
                          9       2    2fy2z             2.027000       0.000000
                                                         0.685000       1.405216
                          9       2    2fyz2             2.027000       0.000000
                                                         0.685000       1.405216
                          9       2    2fz3              2.027000       0.000000
                                                         0.685000       0.628432

                         10       1    1gx4              1.427000       2.958703
                         10       1    1gx3y             1.427000       7.827992
                         10       1    1gx3z             1.427000       7.827992
                         10       1    1gx2y2            1.427000      10.105894
                         10       1    1gx2yz            1.427000      17.503922
                         10       1    1gx2z2            1.427000      10.105894
                         10       1    1gxy3             1.427000       7.827992
                         10       1    1gxy2z            1.427000      17.503922
                         10       1    1gxyz2            1.427000      17.503922
                         10       1    1gxz3             1.427000       7.827992
                         10       1    1gy4              1.427000       2.958703
                         10       1    1gy3z             1.427000       7.827992
                         10       1    1gy2z2            1.427000      10.105894
                         10       1    1gyz3             1.427000       7.827992
                         10       1    1gz4              1.427000       2.958703

     AE Potential information for                                            ALL

       Description:                                       All-electron potential
                                          Krack, Parrinello, PCCP 2, 2105 (2000)

       Gaussian exponent of the core charge distribution:               5.979100
       Electronic configuration (s p d ...):                           4   3   0

  2. Atomic kind: H                                     Number of atoms:       1

     Orbital Basis Set                                               aug-cc-pVQZ

       Number of orbital shell sets:                                           8
       Number of orbital shells:                                              14
       Number of primitive Cartesian functions:                               16
       Number of Cartesian basis functions:                                   55
       Number of spherical basis functions:                                   46
       Norm type:                                                              2

       Normalised Cartesian orbitals:

                        Set   Shell   Orbital            Exponent    Coefficient

                          1       1    1s                0.023630       0.042954

                          2       1    1px               0.084800       0.065228
                          2       1    1py               0.084800       0.065228
                          2       1    1pz               0.084800       0.065228

                          3       1    1s               82.640000       0.000000
                                                        12.410000       0.000000
                                                         2.824000       0.000000
                                                         0.797700       0.601575
                                                         0.258100       0.000000
                                                         0.089890       0.000000

                          3       2    2s               82.640000       0.000000
                                                        12.410000       0.000000
                                                         2.824000       0.000000
                                                         0.797700       0.000000
                                                         0.258100       0.258078
                                                         0.089890       0.000000

                          3       3    3s               82.640000       0.039186
                                                        12.410000       0.072302
                                                         2.824000       0.117344
                                                         0.797700       0.154530
                                                         0.258100       0.128360
                                                         0.089890       0.034648

                          3       4    4s               82.640000       0.000000
                                                        12.410000       0.000000
                                                         2.824000       0.000000
                                                         0.797700       0.000000
                                                         0.258100       0.000000
                                                         0.089890       0.117002

                          4       1    1dx2              0.190000       0.089997
                          4       1    1dxy              0.190000       0.155879
                          4       1    1dxz              0.190000       0.155879
                          4       1    1dy2              0.190000       0.089997
                          4       1    1dyz              0.190000       0.155879
                          4       1    1dz2              0.190000       0.089997

                          5       1    1px               2.292000       4.019836
                                                         0.838000       0.000000
                                                         0.292000       0.000000
                          5       1    1py               2.292000       4.019836
                                                         0.838000       0.000000
                                                         0.292000       0.000000
                          5       1    1pz               2.292000       4.019836
                                                         0.838000       0.000000
                                                         0.292000       0.000000

                          5       2    2px               2.292000       0.000000
                                                         0.838000       1.142865
                                                         0.292000       0.000000
                          5       2    2py               2.292000       0.000000
                                                         0.838000       1.142865
                                                         0.292000       0.000000
                          5       2    2pz               2.292000       0.000000
                                                         0.838000       1.142865
                                                         0.292000       0.000000

                          5       3    3px               2.292000       0.000000
                                                         0.838000       0.000000
                                                         0.292000       0.305963
                          5       3    3py               2.292000       0.000000
                                                         0.838000       0.000000
                                                         0.292000       0.305963
                          5       3    3pz               2.292000       0.000000
                                                         0.838000       0.000000
                                                         0.292000       0.305963

                          6       1    1fx3              0.360000       0.147787
                          6       1    1fx2y             0.360000       0.330461
                          6       1    1fx2z             0.360000       0.330461
                          6       1    1fxy2             0.360000       0.330461
                          6       1    1fxyz             0.360000       0.572375
                          6       1    1fxz2             0.360000       0.330461
                          6       1    1fy3              0.360000       0.147787
                          6       1    1fy2z             0.360000       0.330461
                          6       1    1fyz2             0.360000       0.330461
                          6       1    1fz3              0.360000       0.147787

                          7       1    1dx2              2.062000       5.840024
                                                         0.662000       0.000000
                          7       1    1dxy              2.062000      10.115218
                                                         0.662000       0.000000
                          7       1    1dxz              2.062000      10.115218
                                                         0.662000       0.000000
                          7       1    1dy2              2.062000       5.840024
                                                         0.662000       0.000000
                          7       1    1dyz              2.062000      10.115218
                                                         0.662000       0.000000
                          7       1    1dz2              2.062000       5.840024
                                                         0.662000       0.000000

                          7       2    2dx2              2.062000       0.000000
                                                         0.662000       0.799670
                          7       2    2dxy              2.062000       0.000000
                                                         0.662000       1.385069
                          7       2    2dxz              2.062000       0.000000
                                                         0.662000       1.385069
                          7       2    2dy2              2.062000       0.000000
                                                         0.662000       0.799670
                          7       2    2dyz              2.062000       0.000000
                                                         0.662000       1.385069
                          7       2    2dz2              2.062000       0.000000
                                                         0.662000       0.799670

                          8       1    1fx3              1.397000       3.123535
                          8       1    1fx2y             1.397000       6.984436
                          8       1    1fx2z             1.397000       6.984436
                          8       1    1fxy2             1.397000       6.984436
                          8       1    1fxyz             1.397000      12.097399
                          8       1    1fxz2             1.397000       6.984436
                          8       1    1fy3              1.397000       3.123535
                          8       1    1fy2z             1.397000       6.984436
                          8       1    1fyz2             1.397000       6.984436
                          8       1    1fz3              1.397000       3.123535

     RI Auxiliary Basis Set                                    aug-cc-pVQZ-OPTRI

       Number of orbital shell sets:                                          15
       Number of orbital shells:                                              15
       Number of primitive Cartesian functions:                               15
       Number of Cartesian basis functions:                                   84
       Number of spherical basis functions:                                   63
       Norm type:                                                              2

       Normalised Cartesian orbitals:

                        Set   Shell   Orbital            Exponent    Coefficient

                          1       1    1s                0.172202       0.190519

                          2       1    1dx2              0.411937       0.348629
                          2       1    1dxy              0.411937       0.603843
                          2       1    1dxz              0.411937       0.603843
                          2       1    1dy2              0.411937       0.348629
                          2       1    1dyz              0.411937       0.603843
                          2       1    1dz2              0.411937       0.348629

                          3       1    1s                0.462666       0.399817

                          4       1    1px               0.544212       0.666270
                          4       1    1py               0.544212       0.666270
                          4       1    1pz               0.544212       0.666270

                          5       1    1fx3              0.798039       0.886153
                          5       1    1fx2y             0.798039       1.981498
                          5       1    1fx2z             0.798039       1.981498
                          5       1    1fxy2             0.798039       1.981498
                          5       1    1fxyz             0.798039       3.432056
                          5       1    1fxz2             0.798039       1.981498
                          5       1    1fy3              0.798039       0.886153
                          5       1    1fy2z             0.798039       1.981498
                          5       1    1fyz2             0.798039       1.981498
                          5       1    1fz3              0.798039       0.886153

                          6       1    1gx4              1.030651       1.209184
                          6       1    1gx3y             1.030651       3.199200
                          6       1    1gx3z             1.030651       3.199200
                          6       1    1gx2y2            1.030651       4.130150
                          6       1    1gx2yz            1.030651       7.153629
[...]
 *    |             please set the keyword IGNORE_CONVERGENCE_FAILURE.         *
 *  O/|                                                                        *
 * /| |                                                                        *
 * / \                                                            qs_scf.F:611 *
 *******************************************************************************


 ===== Routine Calling Stack ===== 

            3 scf_env_do_scf
            2 qs_energies
            1 CP2K

 *******************************************************************************
 *   ___                                                                       *
 *  /   \                                                                      *
 * [ABORT]                                                                     *
 *  \___/     SCF run NOT converged. To continue the calculation regardless,   *
 *    |             please set the keyword IGNORE_CONVERGENCE_FAILURE.         *
 *  O/|                                                                        *
 * /| |                                                                        *
 * / \                                                            qs_scf.F:611 *
 *******************************************************************************


 ===== Routine Calling Stack ===== 

            3 scf_env_do_scf
            2 qs_energies
            1 CP2K

 *******************************************************************************
 *   ___                                                                       *
 *  /   \                                                                      *
 * [ABORT]                                                                     *
 *  \___/     SCF run NOT converged. To continue the calculation regardless,   *
 *    |             please set the keyword IGNORE_CONVERGENCE_FAILURE.         *
 *  O/|                                                                        *
 * /| |                                                                        *
 * / \                                                            qs_scf.F:611 *
 *******************************************************************************


 ===== Routine Calling Stack ===== 

            3 scf_env_do_scf
            2 qs_energies
            1 CP2K

 *******************************************************************************
 *   ___                                                                       *
 *  /   \                                                                      *
 * [ABORT]                                                                     *
 *  \___/     SCF run NOT converged. To continue the calculation regardless,   *
 *    |             please set the keyword IGNORE_CONVERGENCE_FAILURE.         *
 *  O/|                                                                        *
 * /| |                                                                        *
 * / \                                                            qs_scf.F:611 *
 *******************************************************************************


 ===== Routine Calling Stack ===== 

            3 scf_env_do_scf
            2 qs_energies
            1 CP2K

 *******************************************************************************
 *   ___                                                                       *
 *  /   \                                                                      *
 * [ABORT]                                                                     *
 *  \___/     SCF run NOT converged. To continue the calculation regardless,   *
 *    |             please set the keyword IGNORE_CONVERGENCE_FAILURE.         *
 *  O/|                                                                        *
 * /| |                                                                        *
 * / \                                                            qs_scf.F:611 *
 *******************************************************************************


 ===== Routine Calling Stack ===== 

            3 scf_env_do_scf
            2 qs_energies
            1 CP2K

 *******************************************************************************
 *   ___                                                                       *
 *  /   \                                                                      *
 * [ABORT]                                                                     *
 *  \___/     SCF run NOT converged. To continue the calculation regardless,   *
 *    |             please set the keyword IGNORE_CONVERGENCE_FAILURE.         *
 *  O/|                                                                        *
 * /| |                                                                        *
 * / \                                                            qs_scf.F:611 *
 *******************************************************************************


 ===== Routine Calling Stack ===== 

            3 scf_env_do_scf
            2 qs_energies
            1 CP2K

 *******************************************************************************
 *   ___                                                                       *
 *  /   \                                                                      *
 * [ABORT]                                                                     *
 *  \___/     SCF run NOT converged. To continue the calculation regardless,   *
 *    |             please set the keyword IGNORE_CONVERGENCE_FAILURE.         *
 *  O/|                                                                        *
 * /| |                                                                        *
 * / \                                                            qs_scf.F:611 *
 *******************************************************************************


 ===== Routine Calling Stack ===== 

            3 scf_env_do_scf
            2 qs_energies
            1 CP2K

 *******************************************************************************
 *   ___                                                                       *
 *  /   \                                                                      *
 * [ABORT]                                                                     *
 *  \___/     SCF run NOT converged. To continue the calculation regardless,   *
 *    |             please set the keyword IGNORE_CONVERGENCE_FAILURE.         *
 *  O/|                                                                        *
 * /| |                                                                        *
 * / \                                                            qs_scf.F:611 *
 *******************************************************************************


 ===== Routine Calling Stack ===== 

            3 scf_env_do_scf
            2 qs_energies
            1 CP2K

 *******************************************************************************
 *   ___                                                                       *
 *  /   \                                                                      *
 * [ABORT]                                                                     *
 *  \___/     SCF run NOT converged. To continue the calculation regardless,   *
 *    |             please set the keyword IGNORE_CONVERGENCE_FAILURE.         *
 *  O/|                                                                        *
 * /| |                                                                        *
 * / \                                                            qs_scf.F:611 *
 *******************************************************************************


 ===== Routine Calling Stack ===== 

            3 scf_env_do_scf
            2 qs_energies
            1 CP2K

 *******************************************************************************
 *   ___                                                                       *
 *  /   \                                                                      *
 * [ABORT]                                                                     *
 *  \___/     SCF run NOT converged. To continue the calculation regardless,   *
 *    |             please set the keyword IGNORE_CONVERGENCE_FAILURE.         *
 *  O/|                                                                        *
 * /| |                                                                        *
 * / \                                                            qs_scf.F:611 *
 *******************************************************************************


 ===== Routine Calling Stack ===== 

            3 scf_env_do_scf
            2 qs_energies
            1 CP2K

 *******************************************************************************
 *   ___                                                                       *
 *  /   \                                                                      *
 * [ABORT]                                                                     *
 *  \___/     SCF run NOT converged. To continue the calculation regardless,   *
 *    |             please set the keyword IGNORE_CONVERGENCE_FAILURE.         *
 *  O/|                                                                        *
 * /| |                                                                        *
 * / \                                                            qs_scf.F:611 *
 *******************************************************************************


 ===== Routine Calling Stack ===== 

            3 scf_env_do_scf
            2 qs_energies
            1 CP2K

 *******************************************************************************
 *   ___                                                                       *
 *  /   \                                                                      *
 * [ABORT]                                                                     *
 *  \___/     SCF run NOT converged. To continue the calculation regardless,   *
 *    |             please set the keyword IGNORE_CONVERGENCE_FAILURE.         *
 *  O/|                                                                        *
 * /| |                                                                        *
 * / \                                                            qs_scf.F:611 *
 *******************************************************************************


 ===== Routine Calling Stack ===== 

            3 scf_env_do_scf
            2 qs_energies
            1 CP2K

 *******************************************************************************
 *   ___                                                                       *
 *  /   \                                                                      *
 * [ABORT]                                                                     *
 *  \___/     SCF run NOT converged. To continue the calculation regardless,   *
 *    |             please set the keyword IGNORE_CONVERGENCE_FAILURE.         *
 *  O/|                                                                        *
 * /| |                                                                        *
 * / \                                                            qs_scf.F:611 *
 *******************************************************************************


 ===== Routine Calling Stack ===== 

            3 scf_env_do_scf
            2 qs_energies
            1 CP2K

 *******************************************************************************
 *   ___                                                                       *
 *  /   \                                                                      *
 * [ABORT]                                                                     *
 *  \___/     SCF run NOT converged. To continue the calculation regardless,   *
 *    |             please set the keyword IGNORE_CONVERGENCE_FAILURE.         *
 *  O/|                                                                        *
 * /| |                                                                        *
 * / \                                                            qs_scf.F:611 *
 *******************************************************************************


 ===== Routine Calling Stack ===== 

            3 scf_env_do_scf
            2 qs_energies
            1 CP2K

 *******************************************************************************
 *   ___                                                                       *
 *  /   \                                                                      *
 * [ABORT]                                                                     *
 *  \___/     SCF run NOT converged. To continue the calculation regardless,   *
 *    |             please set the keyword IGNORE_CONVERGENCE_FAILURE.         *
 *  O/|                                                                        *
 * /| |                                                                        *
 * / \                                                            qs_scf.F:611 *
 *******************************************************************************


 ===== Routine Calling Stack ===== 

            3 scf_env_do_scf
            2 qs_energies
            1 CP2K

 *******************************************************************************
 *   ___                                                                       *
 *  /   \                                                                      *
 * [ABORT]                                                                     *
 *  \___/     SCF run NOT converged. To continue the calculation regardless,   *
 *    |             please set the keyword IGNORE_CONVERGENCE_FAILURE.         *
 *  O/|                                                                        *
 * /| |                                                                        *
 * / \                                                            qs_scf.F:611 *
 *******************************************************************************


 ===== Routine Calling Stack ===== 

            3 scf_env_do_scf
            2 qs_energies
            1 CP2K

 *******************************************************************************
 *   ___                                                                       *
 *  /   \                                                                      *
 * [ABORT]                                                                     *
 *  \___/     SCF run NOT converged. To continue the calculation regardless,   *
 *    |             please set the keyword IGNORE_CONVERGENCE_FAILURE.         *
 *  O/|                                                                        *
 * /| |                                                                        *
 * / \                                                            qs_scf.F:611 *
 *******************************************************************************


 ===== Routine Calling Stack ===== 

            3 scf_env_do_scf
            2 qs_energies
            1 CP2K

 *******************************************************************************
 *   ___                                                                       *
 *  /   \                                                                      *
 * [ABORT]                                                                     *
 *  \___/     SCF run NOT converged. To continue the calculation regardless,   *
 *    |             please set the keyword IGNORE_CONVERGENCE_FAILURE.         *
 *  O/|                                                                        *
 * /| |                                                                        *
 * / \                                                            qs_scf.F:611 *
 *******************************************************************************


 ===== Routine Calling Stack ===== 

            3 scf_env_do_scf
            2 qs_energies
            1 CP2K

 *******************************************************************************
 *   ___                                                                       *
 *  /   \                                                                      *
 * [ABORT]                                                                     *
 *  \___/     SCF run NOT converged. To continue the calculation regardless,   *
 *    |             please set the keyword IGNORE_CONVERGENCE_FAILURE.         *
 *  O/|                                                                        *
 * /| |                                                                        *
 * / \                                                            qs_scf.F:611 *
 *******************************************************************************


 ===== Routine Calling Stack ===== 

            3 scf_env_do_scf
            2 qs_energies
            1 CP2K

 *******************************************************************************
 *   ___                                                                       *
 *  /   \                                                                      *
 * [ABORT]                                                                     *
 *  \___/     SCF run NOT converged. To continue the calculation regardless,   *
 *    |             please set the keyword IGNORE_CONVERGENCE_FAILURE.         *
 *  O/|                                                                        *
 * /| |                                                                        *
 * / \                                                            qs_scf.F:611 *
 *******************************************************************************


 ===== Routine Calling Stack ===== 

            3 scf_env_do_scf
            2 qs_energies
            1 CP2K

 *******************************************************************************
 *   ___                                                                       *
 *  /   \                                                                      *
 * [ABORT]                                                                     *
 *  \___/     SCF run NOT converged. To continue the calculation regardless,   *
 *    |             please set the keyword IGNORE_CONVERGENCE_FAILURE.         *
 *  O/|                                                                        *
 * /| |                                                                        *
 * / \                                                            qs_scf.F:611 *
 *******************************************************************************


 ===== Routine Calling Stack ===== 

            3 scf_env_do_scf
            2 qs_energies
            1 CP2K

 *******************************************************************************
 *   ___                                                                       *
 *  /   \                                                                      *
 * [ABORT]                                                                     *
 *  \___/     SCF run NOT converged. To continue the calculation regardless,   *
 *    |             please set the keyword IGNORE_CONVERGENCE_FAILURE.         *
 *  O/|                                                                        *
 * /| |                                                                        *
 * / \                                                            qs_scf.F:611 *
 *******************************************************************************


 ===== Routine Calling Stack ===== 

            3 scf_env_do_scf
            2 qs_energies
            1 CP2K
