 DBCSR| CPU Multiplication driver                                           BLAS (U)
 DBCSR| Multrec recursion limit                                              512 (U)
 DBCSR| Multiplication stack size                                           1000 (D)
 DBCSR| Maximum elements for images                                    UNLIMITED (U)
 DBCSR| Multiplicative factor virtual images                                   1 (U)
 DBCSR| Use multiplication densification                                       T (D)
 DBCSR| Multiplication size stacks                                             3 (U)
 DBCSR| Use memory pool for CPU allocation                                     F (U)
 DBCSR| Number of 3D layers                                               SINGLE (U)
 DBCSR| Use MPI memory allocation                                              F (U)
 DBCSR| Use RMA algorithm                                                      F (U)
 DBCSR| Use Communication thread                                               T (U)
 DBCSR| Communication thread load                                             75 (D)
 DBCSR| MPI: My process id                                                     0
 DBCSR| MPI: Number of processes                                              24
 DBCSR| OMP: Current number of threads                                         4
 DBCSR| OMP: Max number of threads                                             4
 DBCSR| Split modifier for TAS multiplication algorithm                  1.0E+00 (U)


  **** **** ******  **  PROGRAM STARTED AT               2025-03-03 04:32:35.557
 ***** ** ***  *** **   PROGRAM STARTED ON                          i04r08c02s02
 **    ****   ******    PROGRAM STARTED BY                               di38fab
 ***** **    ** ** **   PROGRAM PROCESS ID                               2907970
  **** **  *******  **  PROGRAM STARTED IN /hppfs/scratch/04/di38fab/05_MOL/W4-1
                                           1+ALK/h2/TZVP

 CP2K| version string:                 CP2K version 2025.1 (Development Version)
 CP2K| source code revision number:                                  git:47877ba
 CP2K| cp2kflags: omp libint fftw3 libxc parallel scalapack max_contr=4         
 CP2K| is freely available from                            https://www.cp2k.org/
 CP2K| Program compiled at                          Thu Feb 20 16:00:34 CET 2025
 CP2K| Program compiled on                                               login04
 CP2K| Program compiled for                                        Supermuc-foss
 CP2K| Data directory path          /hppfs/work/pn36zo/di38fab/newcp2k/cp2k/data
 CP2K| Input file name                                                    GW.inp

 GLOBAL| Force Environment number                                              1
 GLOBAL| Basis set file name            /hppfs/scratch/04/di38fab/04_TMD/BASIS_A
 GLOBAL| Potential file name            /hppfs/work/pn36zo/di38fab/cp2k/data/ALL
 GLOBAL| MM Potential file name                                     MM_POTENTIAL
 GLOBAL| Coordinate file name                                      __STD_INPUT__
 GLOBAL| Method name                                                        CP2K
 GLOBAL| Project name                                                       MoS2
 GLOBAL| Run type                                                         ENERGY
 GLOBAL| FFT library                                                       FFTW3
 GLOBAL| Diagonalization library                                       ScaLAPACK
 GLOBAL| DGEMM library                                                      BLAS
 GLOBAL| Orthonormality check for eigenvectors                          DISABLED
 GLOBAL| Matrix multiplication library                                 ScaLAPACK
 GLOBAL| All-to-all communication in single precision                          F
 GLOBAL| FFTs using library dependent lengths                                  F
 GLOBAL| Grid backend                                                       AUTO
 GLOBAL| Global print level                                               MEDIUM
 GLOBAL| MPI I/O enabled                                                       T
 GLOBAL| Total number of message passing processes                            24
 GLOBAL| Number of threads for this process                                    4
 GLOBAL| This output is from process                                           0
 GLOBAL| OpenMP stack size per thread (OMP_STACKSIZE)                    default
 GLOBAL| CPU model name             Intel(R) Xeon(R) Platinum 8174 CPU @ 3.10GHz

 MEMORY| system memory details [Kb]
 MEMORY|                        rank 0           min           max       average
 MEMORY| MemTotal             98436664      98436664      98436664      98436664
 MEMORY| MemFree              84085308      84057444      84085308      84071376
 MEMORY| Buffers                     0             0             0             0
 MEMORY| Cached                2402704       2402704       2410220       2406462
 MEMORY| Slab                  1159720       1159720       1251396       1205558
 MEMORY| SReclaimable           259432        259432        274924        267178
 MEMORY| MemLikelyFree        86747444      86742588      86747444      86745016


 *** Fundamental physical constants (SI units) ***

 *** Literature: B. J. Mohr and B. N. Taylor,
 ***             CODATA recommended values of the fundamental physical
 ***             constants: 2006, Web Version 5.1
 ***             http://physics.nist.gov/constants

 Speed of light in vacuum [m/s]                             2.99792458000000E+08
 Magnetic constant or permeability of vacuum [N/A**2]       1.25663706143592E-06
 Electric constant or permittivity of vacuum [F/m]          8.85418781762039E-12
 Planck constant (h) [J*s]                                  6.62606896000000E-34
 Planck constant (h-bar) [J*s]                              1.05457162825177E-34
 Elementary charge [C]                                      1.60217648700000E-19
 Electron mass [kg]                                         9.10938215000000E-31
 Electron g factor [ ]                                     -2.00231930436220E+00
 Proton mass [kg]                                           1.67262163700000E-27
 Fine-structure constant                                    7.29735253760000E-03
 Rydberg constant [1/m]                                     1.09737315685270E+07
 Avogadro constant [1/mol]                                  6.02214179000000E+23
 Boltzmann constant [J/K]                                   1.38065040000000E-23
 Atomic mass unit [kg]                                      1.66053878200000E-27
 Bohr radius [m]                                            5.29177208590000E-11

 *** Conversion factors ***

 [u] -> [a.u.]                                              1.82288848426455E+03
 [Angstrom] -> [Bohr] = [a.u.]                              1.88972613288564E+00
 [a.u.] = [Bohr] -> [Angstrom]                              5.29177208590000E-01
 [a.u.] -> [s]                                              2.41888432650478E-17
 [a.u.] -> [fs]                                             2.41888432650478E-02
 [a.u.] -> [J]                                              4.35974393937059E-18
 [a.u.] -> [N]                                              8.23872205491840E-08
 [a.u.] -> [K]                                              3.15774647902944E+05
 [a.u.] -> [kJ/mol]                                         2.62549961709828E+03
 [a.u.] -> [kcal/mol]                                       6.27509468713739E+02
 [a.u.] -> [Pa]                                             2.94210107994716E+13
 [a.u.] -> [bar]                                            2.94210107994716E+08
 [a.u.] -> [atm]                                            2.90362800883016E+08
 [a.u.] -> [eV]                                             2.72113838565563E+01
 [a.u.] -> [Hz]                                             6.57968392072181E+15
 [a.u.] -> [1/cm] (wave numbers)                            2.19474631370540E+05
 [a.u./Bohr**2] -> [1/cm]                                   5.14048714338585E+03
 

 CELL_TOP| Volume [angstrom^3]:                                     27000.000000
 CELL_TOP| Vector a [angstrom    30.000     0.000     0.000   |a| =    30.000000
 CELL_TOP| Vector b [angstrom     0.000    30.000     0.000   |b| =    30.000000
 CELL_TOP| Vector c [angstrom     0.000     0.000    30.000   |c| =    30.000000
 CELL_TOP| Angle (b,c), alpha [degree]:                                90.000000
 CELL_TOP| Angle (a,c), beta  [degree]:                                90.000000
 CELL_TOP| Angle (a,b), gamma [degree]:                                90.000000
 CELL_TOP| Numerically orthorhombic:                                         YES
 CELL_TOP| Periodicity                                                      NONE

 GENERATE|  Preliminary Number of Bonds generated:                             0
 GENERATE|  Achieved consistency in connectivity generation.

 CELL| Volume [angstrom^3]:                                         27000.000000
 CELL| Vector a [angstrom]:      30.000     0.000     0.000   |a| =    30.000000
 CELL| Vector b [angstrom]:       0.000    30.000     0.000   |b| =    30.000000
 CELL| Vector c [angstrom]:       0.000     0.000    30.000   |c| =    30.000000
 CELL| Angle (b,c), alpha [degree]:                                    90.000000
 CELL| Angle (a,c), beta  [degree]:                                    90.000000
 CELL| Angle (a,b), gamma [degree]:                                    90.000000
 CELL| Numerically orthorhombic:                                             YES
 CELL| Periodicity                                                          NONE

 CELL_REF| Volume [angstrom^3]:                                     27000.000000
 CELL_REF| Vector a [angstrom    30.000     0.000     0.000   |a| =    30.000000
 CELL_REF| Vector b [angstrom     0.000    30.000     0.000   |b| =    30.000000
 CELL_REF| Vector c [angstrom     0.000     0.000    30.000   |c| =    30.000000
 CELL_REF| Angle (b,c), alpha [degree]:                                90.000000
 CELL_REF| Angle (a,c), beta  [degree]:                                90.000000
 CELL_REF| Angle (a,b), gamma [degree]:                                90.000000
 CELL_REF| Numerically orthorhombic:                                         YES
 CELL_REF| Periodicity                                                      NONE

 *******************************************************************************
 *******************************************************************************
 **                                                                           **
 **     #####                         ##              ##                      **
 **    ##   ##            ##          ##              ##                      **
 **   ##     ##                       ##            ######                    **
 **   ##     ##  ##   ##  ##   #####  ##  ##   ####   ##    #####    #####    **
 **   ##     ##  ##   ##  ##  ##      ## ##   ##      ##   ##   ##  ##   ##   **
 **   ##  ## ##  ##   ##  ##  ##      ####     ###    ##   ######   ######    **
 **    ##  ###   ##   ##  ##  ##      ## ##      ##   ##   ##       ##        **
 **     #######   #####   ##   #####  ##  ##  ####    ##    #####   ##        **
 **           ##                                                    ##        **
 **                                                                           **
 **                                                ... make the atoms dance   **
 **                                                                           **
 **            Copyright (C) by CP2K developers group (2000-2025)             **
 **                      J. Chem. Phys. 152, 194103 (2020)                    **
 **                                                                           **
 *******************************************************************************

 DFT| Spin restricted Kohn-Sham (RKS) calculation                            RKS
 DFT| Multiplicity                                                             1
 DFT| Number of spin states                                                    1
 DFT| Charge                                                                   0
 DFT| Self-interaction correction (SIC)                                       NO
 DFT| Cutoffs: density                                              1.000000E-10
 DFT|          gradient                                             1.000000E-10
 DFT|          tau                                                  1.000000E-10
 DFT|          cutoff_smoothing_range                               0.000000E+00
 DFT| XC density smoothing                                                  NONE
 DFT| XC derivatives                                                          PW

 FUNCTIONAL| PBE:
 FUNCTIONAL| J.P.Perdew, K.Burke, M.Ernzerhof, Phys. Rev. Letter, vol. 77, n 18,
 FUNCTIONAL|  pp. 3865-3868, (1996)sx=0.750sc=1.000{spin unpolarized}           


 QS| Method:                                                                GAPW
 QS| Density plane wave grid type                        NON-SPHERICAL FULLSPACE
 QS| Number of grid levels:                                                    4
 QS| Density cutoff [a.u.]:                                                250.0
 QS| Multi grid cutoff [a.u.]: 1) grid level                               250.0
 QS|                           2) grid level                                83.3
 QS|                           3) grid level                                27.8
 QS|                           4) grid level                                 9.3
 QS| Grid level progression factor:                                          3.0
 QS| Relative density cutoff [a.u.]:                                        50.0
 QS| Interaction thresholds: eps_pgf_orb:                                1.0E-12
 QS|                         eps_filter_matrix:                          0.0E+00
 QS|                         eps_core_charge:                            1.0E-14
 QS|                         eps_rho_gspace:                             1.0E-12
 QS|                         eps_rho_rspace:                             1.0E-12
 QS|                         eps_gvg_rspace:                             1.0E-06
 QS|                         eps_ppl:                                    1.0E-02
 QS|                         eps_ppnl:                                   1.0E-08
 QS| GAPW|      One center basis from orbital basis primitives
 QS| GAPW|                   eps_fit:                                    1.0E-04
 QS| GAPW|                   eps_iso:                                    1.0E-12
 QS| GAPW|                   eps_svd:                                    1.0E-08
 QS| GAPW|                   eps_cpc:                                    1.0E-12
 QS| GAPW|   atom-r-grid: quadrature:                                     GC_LOG
 QS| GAPW|      atom-s-grid:  max l :                                          4
 QS| GAPW|      max_l_rho0 :                                                   2


 ATOMIC KIND INFORMATION

  1. Atomic kind: H                                     Number of atoms:       2

     Orbital Basis Set                                        aug-TZVP-MOLOPT-ae

       Number of orbital shell sets:                                           1
       Number of orbital shells:                                               9
       Number of primitive Cartesian functions:                                6
       Number of Cartesian basis functions:                                   25
       Number of spherical basis functions:                                   23
       Norm type:                                                              2

       Normalised Cartesian orbitals:

                        Set   Shell   Orbital            Exponent    Coefficient

                          1       1    1s                0.030000       0.000000
                                                         0.091371      -0.049397
                                                         0.293823      -0.051765
                                                         1.065127       0.831136
                                                         4.947701      -0.270539
                                                        34.177738      -6.423540

                          1       2    2s                0.030000       0.000000
                                                         0.091371      -0.041080
                                                         0.293823       0.227881
                                                         1.065127       0.154529
                                                         4.947701       0.528758
                                                        34.177738       3.211471

                          1       3    3s                0.030000       0.000000
                                                         0.091371       0.076395
                                                         0.293823       0.077306
                                                         1.065127       0.164523
                                                         4.947701      -0.040048
                                                        34.177738      -1.131577

                          1       4    4s                0.030000       0.043550
                                                         0.091371      -0.026138
                                                         0.293823      -0.246542
                                                         1.065127      -0.077212
                                                         4.947701       0.000000
                                                        34.177738       0.000000

                          1       5    2px               0.030000       0.000000
                                                         0.091371       0.008886
                                                         0.293823      -0.007684
                                                         1.065127       1.416453
                                                         4.947701       1.341091
                                                        34.177738     -11.084238
                          1       5    2py               0.030000       0.000000
                                                         0.091371       0.008886
                                                         0.293823      -0.007684
                                                         1.065127       1.416453
                                                         4.947701       1.341091
                                                        34.177738     -11.084238
                          1       5    2pz               0.030000       0.000000
                                                         0.091371       0.008886
                                                         0.293823      -0.007684
                                                         1.065127       1.416453
                                                         4.947701       1.341091
                                                        34.177738     -11.084238

                          1       6    3px               0.030000       0.000000
                                                         0.091371      -0.013062
                                                         0.293823       0.330130
                                                         1.065127       0.106963
                                                         4.947701      -0.549928
                                                        34.177738       9.643751
                          1       6    3py               0.030000       0.000000
                                                         0.091371      -0.013062
                                                         0.293823       0.330130
                                                         1.065127       0.106963
                                                         4.947701      -0.549928
                                                        34.177738       9.643751
                          1       6    3pz               0.030000       0.000000
                                                         0.091371      -0.013062
                                                         0.293823       0.330130
                                                         1.065127       0.106963
                                                         4.947701      -0.549928
                                                        34.177738       9.643751

                          1       7    4px               0.030000       0.014060
                                                         0.091371       0.022273
                                                         0.293823      -0.026384
                                                         1.065127       0.024249
                                                         4.947701       0.000000
                                                        34.177738       0.000000
                          1       7    4py               0.030000       0.014060
                                                         0.091371       0.022273
                                                         0.293823      -0.026384
                                                         1.065127       0.024249
                                                         4.947701       0.000000
                                                        34.177738       0.000000
                          1       7    4pz               0.030000       0.014060
                                                         0.091371       0.022273
                                                         0.293823      -0.026384
                                                         1.065127       0.024249
                                                         4.947701       0.000000
                                                        34.177738       0.000000

                          1       8    3dx2              0.030000       0.000000
                                                         0.091371      -0.004737
                                                         0.293823       0.052231
                                                         1.065127       1.617163
                                                         4.947701      -1.124420
                                                        34.177738       9.702470
                          1       8    3dxy              0.030000       0.000000
                                                         0.091371      -0.008204
                                                         0.293823       0.090468
                                                         1.065127       2.801009
                                                         4.947701      -1.947552
                                                        34.177738      16.805171
                          1       8    3dxz              0.030000       0.000000
                                                         0.091371      -0.008204
                                                         0.293823       0.090468
                                                         1.065127       2.801009
                                                         4.947701      -1.947552
                                                        34.177738      16.805171
                          1       8    3dy2              0.030000       0.000000
                                                         0.091371      -0.004737
                                                         0.293823       0.052231
                                                         1.065127       1.617163
                                                         4.947701      -1.124420
                                                        34.177738       9.702470
                          1       8    3dyz              0.030000       0.000000
                                                         0.091371      -0.008204
                                                         0.293823       0.090468
                                                         1.065127       2.801009
                                                         4.947701      -1.947552
                                                        34.177738      16.805171
                          1       8    3dz2              0.030000       0.000000
                                                         0.091371      -0.004737
                                                         0.293823       0.052231
                                                         1.065127       1.617163
                                                         4.947701      -1.124420
                                                        34.177738       9.702470

                          1       9    4dx2              0.030000       0.002444
                                                         0.091371       0.004703
                                                         0.293823       0.069647
                                                         1.065127       0.196246
                                                         4.947701       0.000000
                                                        34.177738       0.000000
                          1       9    4dxy              0.030000       0.004233
                                                         0.091371       0.008146
                                                         0.293823       0.120632
                                                         1.065127       0.339908
                                                         4.947701       0.000000
                                                        34.177738       0.000000
                          1       9    4dxz              0.030000       0.004233
                                                         0.091371       0.008146
                                                         0.293823       0.120632
                                                         1.065127       0.339908
                                                         4.947701       0.000000
                                                        34.177738       0.000000
                          1       9    4dy2              0.030000       0.002444
                                                         0.091371       0.004703
                                                         0.293823       0.069647
                                                         1.065127       0.196246
                                                         4.947701       0.000000
                                                        34.177738       0.000000
                          1       9    4dyz              0.030000       0.004233
                                                         0.091371       0.008146
                                                         0.293823       0.120632
                                                         1.065127       0.339908
                                                         4.947701       0.000000
                                                        34.177738       0.000000
                          1       9    4dz2              0.030000       0.002444
                                                         0.091371       0.004703
                                                         0.293823       0.069647
                                                         1.065127       0.196246
                                                         4.947701       0.000000
                                                        34.177738       0.000000

     RI Auxiliary Basis Set             RI_aug-TZVP-MOLOPT-ae_N_RI_020_s_p_d_f_g

       Number of orbital shell sets:                                           8
       Number of orbital shells:                                               8
       Number of primitive Cartesian functions:                                8
       Number of Cartesian basis functions:                                   22
       Number of spherical basis functions:                                   20
       Norm type:                                                              2

       Normalised Cartesian orbitals:

                        Set   Shell   Orbital            Exponent    Coefficient

                          1       1    1s                0.322706       0.305151

                          2       1    7dx2              0.456192       0.416790
                          2       1    7dxy              0.456192       0.721901
                          2       1    7dxz              0.456192       0.721901
                          2       1    7dy2              0.456192       0.416790
                          2       1    7dyz              0.456192       0.721901
                          2       1    7dz2              0.456192       0.416790

                          3       1    5px               0.503736       0.604914
                          3       1    5py               0.503736       0.604914
                          3       1    5pz               0.503736       0.604914

                          4       1    2s                1.186112       0.810036

                          5       1    8dx2              1.567393       3.613856
                          5       1    8dxy              1.567393       6.259382
                          5       1    8dxz              1.567393       6.259382
                          5       1    8dy2              1.567393       3.613856
                          5       1    8dyz              1.567393       6.259382
                          5       1    8dz2              1.567393       3.613856

                          6       1    6px               1.899345       3.178300
                          6       1    6py               1.899345       3.178300
                          6       1    6pz               1.899345       3.178300

                          7       1    3s                4.359582       2.150274

                          8       1    4s               16.023748       5.707990

       Atomic covalent radius [Angstrom]:                                  0.320

       Atomic van der Waals radius [Angstrom]:                             1.090

     The atoms of this atomic kind are PAW atoms (GAPW):
       Hard Gaussian function radius:                                      1.200
       Rho0 radius:                                                        1.200
       Maximum GTO radius used for PAW projector construction:            24.566

     GAPW Soft Basis Set                                 aug-TZVP-MOLOPT-ae_soft

       Number of orbital shell sets:                                           1
       Number of orbital shells:                                               9
       Number of primitive Cartesian functions:                                5
       Number of Cartesian basis functions:                                   25
       Number of spherical basis functions:                                   23
       Norm type:                                                              2

       Normalised Cartesian orbitals:

                        Set   Shell   Orbital            Exponent    Coefficient

                          1       1    1s                0.030000       0.000000
                                                         0.091371      -0.049397
                                                         0.293823      -0.051765
                                                         1.065127       0.831136
                                                         4.947701      -0.270539

                          1       2    2s                0.030000       0.000000
                                                         0.091371      -0.041080
                                                         0.293823       0.227881
                                                         1.065127       0.154529
                                                         4.947701       0.528758

                          1       3    3s                0.030000       0.000000
                                                         0.091371       0.076395
                                                         0.293823       0.077306
                                                         1.065127       0.164523
                                                         4.947701      -0.040048

                          1       4    4s                0.030000       0.043550
                                                         0.091371      -0.026138
                                                         0.293823      -0.246542
                                                         1.065127      -0.077212
                                                         4.947701       0.000000

                          1       5    2px               0.030000       0.000000
                                                         0.091371       0.008886
                                                         0.293823      -0.007684
                                                         1.065127       1.416453
                                                         4.947701       1.341091
                          1       5    2py               0.030000       0.000000
                                                         0.091371       0.008886
                                                         0.293823      -0.007684
                                                         1.065127       1.416453
                                                         4.947701       1.341091
                          1       5    2pz               0.030000       0.000000
                                                         0.091371       0.008886
                                                         0.293823      -0.007684
                                                         1.065127       1.416453
                                                         4.947701       1.341091

                          1       6    3px               0.030000       0.000000
                                                         0.091371      -0.013062
                                                         0.293823       0.330130
                                                         1.065127       0.106963
                                                         4.947701      -0.549928
                          1       6    3py               0.030000       0.000000
                                                         0.091371      -0.013062
                                                         0.293823       0.330130
                                                         1.065127       0.106963
                                                         4.947701      -0.549928
                          1       6    3pz               0.030000       0.000000
                                                         0.091371      -0.013062
                                                         0.293823       0.330130
                                                         1.065127       0.106963
                                                         4.947701      -0.549928

                          1       7    4px               0.030000       0.014060
                                                         0.091371       0.022273
                                                         0.293823      -0.026384
                                                         1.065127       0.024249
                                                         4.947701       0.000000
                          1       7    4py               0.030000       0.014060
                                                         0.091371       0.022273
                                                         0.293823      -0.026384
                                                         1.065127       0.024249
                                                         4.947701       0.000000
                          1       7    4pz               0.030000       0.014060
                                                         0.091371       0.022273
                                                         0.293823      -0.026384
                                                         1.065127       0.024249
                                                         4.947701       0.000000

                          1       8    3dx2              0.030000       0.000000
                                                         0.091371      -0.004737
                                                         0.293823       0.052231
                                                         1.065127       1.617163
                                                         4.947701      -1.124420
                          1       8    3dxy              0.030000       0.000000
                                                         0.091371      -0.008204
                                                         0.293823       0.090468
                                                         1.065127       2.801009
                                                         4.947701      -1.947552
                          1       8    3dxz              0.030000       0.000000
                                                         0.091371      -0.008204
                                                         0.293823       0.090468
                                                         1.065127       2.801009
                                                         4.947701      -1.947552
                          1       8    3dy2              0.030000       0.000000
                                                         0.091371      -0.004737
                                                         0.293823       0.052231
                                                         1.065127       1.617163
                                                         4.947701      -1.124420
                          1       8    3dyz              0.030000       0.000000
                                                         0.091371      -0.008204
                                                         0.293823       0.090468
                                                         1.065127       2.801009
                                                         4.947701      -1.947552
                          1       8    3dz2              0.030000       0.000000
                                                         0.091371      -0.004737
                                                         0.293823       0.052231
                                                         1.065127       1.617163
                                                         4.947701      -1.124420

                          1       9    4dx2              0.030000       0.002444
                                                         0.091371       0.004703
                                                         0.293823       0.069647
                                                         1.065127       0.196246
                                                         4.947701       0.000000
                          1       9    4dxy              0.030000       0.004233
                                                         0.091371       0.008146
                                                         0.293823       0.120632
                                                         1.065127       0.339908
                                                         4.947701       0.000000
                          1       9    4dxz              0.030000       0.004233
                                                         0.091371       0.008146
                                                         0.293823       0.120632
                                                         1.065127       0.339908
                                                         4.947701       0.000000
                          1       9    4dy2              0.030000       0.002444
                                                         0.091371       0.004703
                                                         0.293823       0.069647
                                                         1.065127       0.196246
                                                         4.947701       0.000000
                          1       9    4dyz              0.030000       0.004233
                                                         0.091371       0.008146
                                                         0.293823       0.120632
                                                         1.065127       0.339908
                                                         4.947701       0.000000
                          1       9    4dz2              0.030000       0.002444
                                                         0.091371       0.004703
                                                         0.293823       0.069647
                                                         1.065127       0.196246
                                                         4.947701       0.000000

     AE Potential information for                                            ALL

       Description:                                       All-electron potential
                                          Krack, Parrinello, PCCP 2, 2105 (2000)

       Gaussian exponent of the core charge distribution:              12.500000
       Electronic configuration (s p d ...):                           1   0   0


 MOLECULE KIND INFORMATION


 All atoms are their own molecule, skipping detailed information


 TOTAL NUMBERS AND MAXIMUM NUMBERS

  Total number of            - Atomic kinds:                                   1
                             - Atoms:                                          2
                             - Shell sets:                                     2
                             - Shells:                                        18
                             - Primitive Cartesian functions:                 12
                             - Cartesian basis functions:                     50
                             - Spherical basis functions:                     46

  Maximum angular momentum of the orbital basis functions:                     2


 MODULE QUICKSTEP: ATOMIC COORDINATES IN ANGSTROM

   Atom Kind Element         X             Y             Z       Z(eff)     Mass
      1    1 H     1     15.370946     15.000000     15.000000   1.0000   1.0079
      2    1 H     1     14.629054     15.000000     15.000000   1.0000   1.0079



 SCF PARAMETERS         Density guess:                                    ATOMIC
                        --------------------------------------------------------
                        max_scf:                                             500
                        max_scf_history:                                       0
                        max_diis:                                              4
                        --------------------------------------------------------
                        eps_scf:                                        1.00E-06
                        eps_scf_history:                                0.00E+00
                        eps_diis:                                       1.00E-01
                        eps_eigval:                                     1.00E-05
                        --------------------------------------------------------
                        level_shift [a.u.]:                             0.000000
                        added MOs                                        45    0
                        --------------------------------------------------------
                        Mixing method:                            BROYDEN_MIXING
                                                charge density mixing in g-space
                        --------------------------------------------------------
                        No outer SCF

 PW_GRID| Information for grid number                                          1
 PW_GRID| Grid distributed over                                    24 processors
 PW_GRID| Real space group dimensions                                    24    1
 PW_GRID| the grid is blocked:                                                NO
 PW_GRID| Cutoff [a.u.]                                                    250.0
 PW_GRID| spherical cutoff:                                                   NO
 PW_GRID|   Bounds   1           -202     202                Points:         405
 PW_GRID|   Bounds   2           -202     202                Points:         405
 PW_GRID|   Bounds   3           -202     202                Points:         405
 PW_GRID| Volume element (a.u.^3)  0.2743E-02     Volume (a.u.^3)    182205.0337
 PW_GRID| Grid span                                                    FULLSPACE
 PW_GRID|   Distribution                         Average         Max         Min
 PW_GRID|   G-Vectors                          2767921.9     2768175     2767770
 PW_GRID|   G-Rays                                6834.4        6835        6834
 PW_GRID|   Real Space Points                  2767921.9     2788425     2624400

 PW_GRID| Information for grid number                                          2
 PW_GRID| Number of the reference grid                                         1
 PW_GRID| Grid distributed over                                    24 processors
 PW_GRID| Real space group dimensions                                    24    1
 PW_GRID| the grid is blocked:                                                NO
 PW_GRID| Cutoff [a.u.]                                                     83.3
 PW_GRID| spherical cutoff:                                                   NO
 PW_GRID|   Bounds   1           -120     119                Points:         240
 PW_GRID|   Bounds   2           -120     119                Points:         240
 PW_GRID|   Bounds   3           -120     119                Points:         240
 PW_GRID| Volume element (a.u.^3)  0.1318E-01     Volume (a.u.^3)    182205.0337
 PW_GRID| Grid span                                                    FULLSPACE
 PW_GRID|   Distribution                         Average         Max         Min
 PW_GRID|   G-Vectors                           576000.0      576240      575760
 PW_GRID|   G-Rays                                2400.0        2401        2399
 PW_GRID|   Real Space Points                   576000.0      576000      576000

 PW_GRID| Information for grid number                                          3
 PW_GRID| Number of the reference grid                                         1
 PW_GRID| Grid distributed over                                    24 processors
 PW_GRID| Real space group dimensions                                    24    1
 PW_GRID| the grid is blocked:                                                NO
 PW_GRID| Cutoff [a.u.]                                                     27.8
 PW_GRID| spherical cutoff:                                                   NO
 PW_GRID|   Bounds   1            -67      67                Points:         135
 PW_GRID|   Bounds   2            -67      67                Points:         135
 PW_GRID|   Bounds   3            -67      67                Points:         135
 PW_GRID| Volume element (a.u.^3)  0.7406E-01     Volume (a.u.^3)    182205.0337
 PW_GRID| Grid span                                                    FULLSPACE
 PW_GRID|   Distribution                         Average         Max         Min
 PW_GRID|   G-Vectors                           102515.6      102735      102330
 PW_GRID|   G-Rays                                 759.4         761         758
 PW_GRID|   Real Space Points                   102515.6      109350       91125

 PW_GRID| Information for grid number                                          4
 PW_GRID| Number of the reference grid                                         1
 PW_GRID| Grid distributed over                                    24 processors
 PW_GRID| Real space group dimensions                                    24    1
 PW_GRID| the grid is blocked:                                                NO
 PW_GRID| Cutoff [a.u.]                                                      9.3
 PW_GRID| spherical cutoff:                                                   NO
 PW_GRID|   Bounds   1            -40      39                Points:          80
 PW_GRID|   Bounds   2            -40      39                Points:          80
 PW_GRID|   Bounds   3            -40      39                Points:          80
 PW_GRID| Volume element (a.u.^3)  0.3559         Volume (a.u.^3)    182205.0337
 PW_GRID| Grid span                                                    FULLSPACE
 PW_GRID|   Distribution                         Average         Max         Min
 PW_GRID|   G-Vectors                            21333.3       21360       21280
 PW_GRID|   G-Rays                                 266.7         267         266
 PW_GRID|   Real Space Points                    21333.3       25600       19200

 POISSON| Solver                                                         WAVELET
 POISSON| Wavelet| Scaling function                                           40
 POISSON| Periodicity                                                       NONE

 RS_GRID| Information for grid number                                          1
 RS_GRID|   Bounds   1           -202     202                Points:         405
 RS_GRID|   Bounds   2           -202     202                Points:         405
 RS_GRID|   Bounds   3           -202     202                Points:         405
 RS_GRID| Real space distribution over                                  4 groups
 RS_GRID| Real space distribution along direction                              2
 RS_GRID| Border size                                                         31
 RS_GRID| Real space distribution over                                  6 groups
 RS_GRID| Real space distribution along direction                              3
 RS_GRID| Border size                                                         31
 RS_GRID|   Distribution                         Average         Max         Min
 RS_GRID|   Planes                                 163.2         164         163
 RS_GRID|   Distribution                         Average         Max         Min
 RS_GRID|   Planes                                 129.5         130         129

 RS_GRID| Information for grid number                                          2
 RS_GRID|   Bounds   1           -120     119                Points:         240
 RS_GRID|   Bounds   2           -120     119                Points:         240
 RS_GRID|   Bounds   3           -120     119                Points:         240
 RS_GRID| Real space distribution over                                  4 groups
 RS_GRID| Real space distribution along direction                              2
 RS_GRID| Border size                                                         36
 RS_GRID| Real space distribution over                                  6 groups
 RS_GRID| Real space distribution along direction                              3
 RS_GRID| Border size                                                         36
 RS_GRID|   Distribution                         Average         Max         Min
 RS_GRID|   Planes                                 132.0         132         132
 RS_GRID|   Distribution                         Average         Max         Min
 RS_GRID|   Planes                                 112.0         112         112

 RS_GRID| Information for grid number                                          3
 RS_GRID|   Bounds   1            -67      67                Points:         135
 RS_GRID|   Bounds   2            -67      67                Points:         135
 RS_GRID|   Bounds   3            -67      67                Points:         135
 RS_GRID| Real space fully replicated
 RS_GRID| Group size                                                           1

 RS_GRID| Information for grid number                                          4
 RS_GRID|   Bounds   1            -40      39                Points:          80
 RS_GRID|   Bounds   2            -40      39                Points:          80
 RS_GRID|   Bounds   3            -40      39                Points:          80
 RS_GRID| Real space fully replicated
 RS_GRID| Group size                                                           1

  HFX_INFO| Replica ID:                                                        1
  HFX_INFO| FRACTION:                                               0.2500000000
  HFX_INFO| Interaction Potential:                                       COULOMB
  HFX_INFO| EPS_SCHWARZ:                                                 1.0E-10
  HFX_INFO| EPS_SCHWARZ_FORCES                                           1.0E-08
  HFX_INFO| EPS_STORAGE_SCALING:                                         1.0E+00
  HFX_INFO| NBINS:                                                            64
  HFX_INFO| BLOCK_SIZE:                                                        1
  HFX_INFO| Number of periodic shells considered:                           NONE
  HFX_INFO| Number of periodic cells considered:                            NONE

 
 RI-RPA| using GPW style
 

 OVERLAP MATRIX CONDITION NUMBER
 1-Norm Condition Number (Estimate)
   CN : |A|*|A^-1|:  5.823E+000 *  8.472E+003   = 4.933E+004  Log(1-CN):  4.6931
 1-Norm and 2-Norm Condition Numbers using Diagonalization
   CN : |A|*|A^-1|:  5.823E+000 *  8.472E+003   = 4.933E+004  Log(1-CN):  4.6931
   CN : max/min ev:  4.404E+000 /  1.731E-004   = 2.545E+004  Log(2-CN):  4.4057

 Number of electrons:                                                          2
 Number of occupied orbitals:                                                  1
 Number of molecular orbitals:                                                46

 Number of orbital functions:                                                 46
 Number of independent orbital functions:                                     46

 Extrapolation method: initial_guess

 Atomic guess: The first density matrix is obtained in terms of atomic orbitals
               and electronic configurations assigned to each atomic kind

 Guess for atomic kind: H

 Electronic structure
    Total number of core electrons                                          0.00
    Total number of valence electrons                                       1.00
    Total number of electrons                                               1.00
    Multiplicity                                                   not specified
    S      1.00


 *******************************************************************************
                  Iteration          Convergence                     Energy [au]
 *******************************************************************************
                          1        0.733196E-02                  -0.445117623880
                          2        0.859241E-03                  -0.445212006904
                          3        0.845006E-04                  -0.445214656295
                          4        0.112741E-06                  -0.445214675972

 Energy components [Hartree]           Total Energy ::           -0.445214675972
                                        Band Energy ::           -0.233330933424
                                     Kinetic Energy ::            0.424855784484
                                   Potential Energy ::           -0.870070460456
                                      Virial (-V/T) ::            2.047919534654
                                        Core Energy ::           -0.495467353870
                                          XC Energy ::           -0.231971319510
                                     Coulomb Energy ::            0.282223997408

 Orbital energies  State     L     Occupation   Energy[a.u.]          Energy[eV]

                       1     0          1.000      -0.233331           -6.349258


 Total Electron Density at R=0:                                         0.248077
 Re-scaling the density matrix to get the right number of electrons
                  # Electrons              Trace(P)               Scaling factor
                            2                 2.000                        1.000


 SCF WAVEFUNCTION OPTIMIZATION

  Step     Update method      Time    Convergence         Total energy    Change
  ------------------------------------------------------------------------------

  HFX_MEM_INFO| Est. max. program size before HFX [MiB]:                    2085
  HFX_MEM_INFO| Number of cart. primitive ERI's calculated:             77250000
  HFX_MEM_INFO| Number of sph. ERI's calculated:                         1679046
  HFX_MEM_INFO| Number of sph. ERI's stored in-core:                     1679046
  HFX_MEM_INFO| Number of sph. ERI's stored on disk:                           0
  HFX_MEM_INFO| Number of sph. ERI's calculated on the fly:                    0
  HFX_MEM_INFO| Total memory consumption ERI's RAM [MiB]:                      8
  HFX_MEM_INFO| Whereof max-vals [MiB]:                                        1
  HFX_MEM_INFO| Total compression factor ERI's RAM:                         1.65
  HFX_MEM_INFO| Total memory consumption ERI's disk [MiB]:                     0
  HFX_MEM_INFO| Total compression factor ERI's disk:                        0.00
  HFX_MEM_INFO| Size of density/Fock matrix [MiB]:                             0
  HFX_MEM_INFO| Size of buffers [MiB]:                                         8
  HFX_MEM_INFO| Est. max. program size after HFX  [MiB]:                    2608

     1 NoMix/Diag. 0.10E+00    8.8     0.48126369        -0.9432900279 -9.43E-01
     2 Broy./Diag. 0.10E+00    4.7     0.02301258        -0.7493647187  1.94E-01
     3 Broy./Diag. 0.10E+00    4.9     0.01715733        -0.3529084568  3.96E-01
     4 Broy./Diag. 0.10E+00    4.8     0.00238665        -0.4403989042 -8.75E-02
     5 Broy./Diag. 0.10E+00    5.0     0.00460206        -0.5294748012 -8.91E-02
     6 Broy./Diag. 0.10E+00    5.0     0.00230841        -0.5634560330 -3.40E-02
     7 Broy./Diag. 0.10E+00    5.0     0.01731187        -0.7629646800 -2.00E-01
     8 Broy./Diag. 0.10E+00    5.1     0.00733725        -0.8576775496 -9.47E-02
     9 Broy./Diag. 0.10E+00    5.1     0.00281292        -0.8936752651 -3.60E-02
    10 Broy./Diag. 0.10E+00    5.2     0.00688399        -0.9611550238 -6.75E-02
    11 Broy./Diag. 0.10E+00    5.2     0.01689123        -1.1119850748 -1.51E-01
    12 Broy./Diag. 0.10E+00    5.2     0.00317048        -1.1560672301 -4.41E-02
    13 Broy./Diag. 0.10E+00    5.3     0.00029709        -1.1564153344 -3.48E-04
    14 Broy./Diag. 0.10E+00    5.2     0.00113240        -1.1651506209 -8.74E-03
    15 Broy./Diag. 0.10E+00    5.2     0.00216535        -1.1715233291 -6.37E-03
    16 Broy./Diag. 0.10E+00    5.3     0.00130707        -1.1639233040  7.60E-03
    17 Broy./Diag. 0.10E+00    5.2     0.00056911        -1.1625639559  1.36E-03
    18 Broy./Diag. 0.10E+00    5.2     0.00094288        -1.1683550902 -5.79E-03
    19 Broy./Diag. 0.10E+00    5.2     0.00141597        -1.1684543872 -9.93E-05
    20 Broy./Diag. 0.10E+00    5.2     0.00084816        -1.1674470895  1.01E-03
    21 Broy./Diag. 0.10E+00    5.2     0.00024412        -1.1688951787 -1.45E-03
    22 Broy./Diag. 0.10E+00    5.3     0.00039652        -1.1681017626  7.93E-04
    23 Broy./Diag. 0.10E+00    5.2     0.00018919        -1.1684292424 -3.27E-04
    24 Broy./Diag. 0.10E+00    5.2     0.00009265        -1.1685486027 -1.19E-04
    25 Broy./Diag. 0.10E+00    5.3     0.00017433        -1.1683325458  2.16E-04
    26 Broy./Diag. 0.10E+00    5.2     0.00005689        -1.1685630994 -2.31E-04
    27 Broy./Diag. 0.10E+00    5.2     0.00016769        -1.1682804698  2.83E-04
    28 Broy./Diag. 0.10E+00    5.3     0.00009562        -1.1683620679 -8.16E-05
    29 Broy./Diag. 0.10E+00    5.2     0.00002145        -1.1684890455 -1.27E-04
    30 Broy./Diag. 0.10E+00    5.2     0.00011029        -1.1684154548  7.36E-05
    31 Broy./Diag. 0.10E+00    5.2     0.00000819        -1.1684346980 -1.92E-05
    32 Broy./Diag. 0.10E+00    5.2     0.00010444        -1.1684844738 -4.98E-05
    33 Broy./Diag. 0.10E+00    5.4     0.00000852        -1.1684413819  4.31E-05
    34 Broy./Diag. 0.10E+00    5.2     0.00000296        -1.1683994698  4.19E-05
    35 Broy./Diag. 0.10E+00    5.2     0.00000873        -1.1684386481 -3.92E-05
    36 Broy./Diag. 0.10E+00    5.3     0.00001985        -1.1684489300 -1.03E-05
    37 Broy./Diag. 0.10E+00    5.2     0.00003977        -1.1684615388 -1.26E-05
    38 Broy./Diag. 0.10E+00    5.3     0.00000625        -1.1684793520 -1.78E-05
    39 Broy./Diag. 0.10E+00    5.3     0.00002607        -1.1684673130  1.20E-05
    40 Broy./Diag. 0.10E+00    5.2     0.00000139        -1.1684660147  1.30E-06
    41 Broy./Diag. 0.10E+00    5.3     0.00001287        -1.1684755600 -9.55E-06
    42 Broy./Diag. 0.10E+00    5.2     0.00001996        -1.1684650999  1.05E-05
    43 Broy./Diag. 0.10E+00    5.2     0.00001692        -1.1684630185  2.08E-06
    44 Broy./Diag. 0.10E+00    5.2     0.00000550        -1.1684577635  5.25E-06
    45 Broy./Diag. 0.10E+00    5.3     0.00000340        -1.1684467866  1.10E-05
    46 Broy./Diag. 0.10E+00    5.2     0.00000209        -1.1684524583 -5.67E-06
    47 Broy./Diag. 0.10E+00    5.2     0.00000246        -1.1684513388  1.12E-06
    48 Broy./Diag. 0.10E+00    5.3     0.00001313        -1.1684494085  1.93E-06
    49 Broy./Diag. 0.10E+00    5.3     0.00000104        -1.1684514249 -2.02E-06
    50 Broy./Diag. 0.10E+00    5.2     0.00000106        -1.1684506738  7.51E-07
    51 Broy./Diag. 0.10E+00    5.4     0.00000152        -1.1684512651 -5.91E-07
    52 Broy./Diag. 0.10E+00    5.2     0.00000171        -1.1684519575 -6.92E-07
    53 Broy./Diag. 0.10E+00    5.2     0.00000152        -1.1684518538  1.04E-07
    54 Broy./Diag. 0.10E+00    5.2     0.00000710        -1.1684523224 -4.69E-07
    55 Broy./Diag. 0.10E+00    5.2     0.00000102        -1.1684528735 -5.51E-07
    56 Broy./Diag. 0.10E+00    5.4     0.00000030        -1.1684522556  6.18E-07

  *** SCF run converged in    56 steps ***


  Electronic density on regular grids:         -1.9954460838        0.0045539162
  Core density on regular grids:                2.0000000000       -0.0000000000
  Hard and soft densities (Lebedev):          -10.7157279438      -10.7111742547
  Total Rho_soft + Rho1_hard - Rho1_soft       -1.9999997729
  Total charge density (r-space):               0.0000002271
  Total Rho_soft + Rho0_soft (g-space):         0.0000002208

  Overlap energy of the core charge distribution:               0.00000051136925
  Self energy of the core charge distribution:                 -2.82094791773878
  Core Hamiltonian energy:                                      0.97987437447277
  Hartree energy:                                               1.09124536467065
  Exchange-correlation energy:                                 -0.52651187850753
  Hartree-Fock Exchange energy:                                -0.16445410788158

  GAPW| Exc from hard and soft atomic rho1:                    -0.00268942911706
  GAPW| local Eh = 1 center integrals:                          0.27503082712075

  Total energy:                                                -1.16845225561154

 !-----------------------------------------------------------------------------!
                     Mulliken Population Analysis

 #  Atom  Element  Kind  Atomic population                           Net charge
       1     H        1          1.000000                             -0.000000
       2     H        1          1.000000                              0.000000
 # Total charge                              2.000000                  0.000000

 !-----------------------------------------------------------------------------!

 !-----------------------------------------------------------------------------!
                           Hirshfeld Charges

  #Atom  Element  Kind  Ref Charge     Population                    Net charge
      1       H      1       1.000          0.932                         0.068
      2       H      1       1.000          0.932                         0.068

  Total Charge                                                            0.136
 !-----------------------------------------------------------------------------!


 RI-RPA section
 --------------

  Used number of processes per group:                                          1
  Maximum allowed memory usage per MPI process:                      1024.00 MiB
  RI_INFO| Cholesky decomposition group size:                                  2
  RI_INFO| Number of groups for auxiliary basis functions                     24

  RI_INFO| RI metric:                                                    COULOMB
  RI_INFO| Number of auxiliary basis functions:                               40
  GENERAL_INFO| Number of basis functions:                                    46
  GENERAL_INFO| Number of occupied orbitals:                                   1
  GENERAL_INFO| Number of virtual orbitals:                                   45
  RI_INFO| Total memory for (ia|K) integrals:                           0.01 MiB
  RI_INFO| Total memory for G0W0-(nm|K) integrals:                      0.65 MiB
  RI_INFO| Total memory for (ij|K) integrals:                           0.00 MiB
  RI_INFO| Total memory for (ab|K) integrals:                           0.62 MiB
  RI_INFO| Group size for frequency integration:                              24
  INTEG_INFO| Clenshaw-Curtius quadrature
  INTEG_INFO| Number of integration points:                                  100
  INTEG_INFO| Number of integration points per RPA group:                    100
  MATRIX_INFO| Number row processes:                                           6
  MATRIX_INFO| Number column processes:                                        4
  MATRIX_INFO| Row block size:                                                 3
  MATRIX_INFO| Column block size:                                              5
  INTEG_INFO| Scaling parameter:                                         0.20000
  INTEG_INFO| Started with Integration point   1 of 100
  INTEG_INFO| Started with Integration point   2 of 100
  INTEG_INFO| Started with Integration point   3 of 100
  INTEG_INFO| Started with Integration point   4 of 100
  INTEG_INFO| Started with Integration point   5 of 100
  INTEG_INFO| Started with Integration point   6 of 100
  INTEG_INFO| Started with Integration point   7 of 100
  INTEG_INFO| Started with Integration point   8 of 100
  INTEG_INFO| Started with Integration point   9 of 100
  INTEG_INFO| Started with Integration point  10 of 100
  INTEG_INFO| Started with Integration point  11 of 100
  INTEG_INFO| Started with Integration point  12 of 100
  INTEG_INFO| Started with Integration point  13 of 100
  INTEG_INFO| Started with Integration point  14 of 100
  INTEG_INFO| Started with Integration point  15 of 100
  INTEG_INFO| Started with Integration point  16 of 100
  INTEG_INFO| Started with Integration point  17 of 100
  INTEG_INFO| Started with Integration point  18 of 100
  INTEG_INFO| Started with Integration point  19 of 100
  INTEG_INFO| Started with Integration point  20 of 100
  INTEG_INFO| Started with Integration point  21 of 100
  INTEG_INFO| Started with Integration point  22 of 100
  INTEG_INFO| Started with Integration point  23 of 100
  INTEG_INFO| Started with Integration point  24 of 100
  INTEG_INFO| Started with Integration point  25 of 100
  INTEG_INFO| Started with Integration point  26 of 100
  INTEG_INFO| Started with Integration point  27 of 100
  INTEG_INFO| Started with Integration point  28 of 100
  INTEG_INFO| Started with Integration point  29 of 100
  INTEG_INFO| Started with Integration point  30 of 100
  INTEG_INFO| Started with Integration point  31 of 100
  INTEG_INFO| Started with Integration point  32 of 100
  INTEG_INFO| Started with Integration point  33 of 100
  INTEG_INFO| Started with Integration point  34 of 100
  INTEG_INFO| Started with Integration point  35 of 100
  INTEG_INFO| Started with Integration point  36 of 100
  INTEG_INFO| Started with Integration point  37 of 100
  INTEG_INFO| Started with Integration point  38 of 100
  INTEG_INFO| Started with Integration point  39 of 100
  INTEG_INFO| Started with Integration point  40 of 100
  INTEG_INFO| Started with Integration point  41 of 100
  INTEG_INFO| Started with Integration point  42 of 100
  INTEG_INFO| Started with Integration point  43 of 100
  INTEG_INFO| Started with Integration point  44 of 100
  INTEG_INFO| Started with Integration point  45 of 100
  INTEG_INFO| Started with Integration point  46 of 100
  INTEG_INFO| Started with Integration point  47 of 100
  INTEG_INFO| Started with Integration point  48 of 100
  INTEG_INFO| Started with Integration point  49 of 100
  INTEG_INFO| Started with Integration point  50 of 100
  INTEG_INFO| Started with Integration point  51 of 100
  INTEG_INFO| Started with Integration point  52 of 100
  INTEG_INFO| Started with Integration point  53 of 100
  INTEG_INFO| Started with Integration point  54 of 100
  INTEG_INFO| Started with Integration point  55 of 100
  INTEG_INFO| Started with Integration point  56 of 100
  INTEG_INFO| Started with Integration point  57 of 100
  INTEG_INFO| Started with Integration point  58 of 100
  INTEG_INFO| Started with Integration point  59 of 100
  INTEG_INFO| Started with Integration point  60 of 100
  INTEG_INFO| Started with Integration point  61 of 100
  INTEG_INFO| Started with Integration point  62 of 100
  INTEG_INFO| Started with Integration point  63 of 100
  INTEG_INFO| Started with Integration point  64 of 100
  INTEG_INFO| Started with Integration point  65 of 100
  INTEG_INFO| Started with Integration point  66 of 100
  INTEG_INFO| Started with Integration point  67 of 100
  INTEG_INFO| Started with Integration point  68 of 100
  INTEG_INFO| Started with Integration point  69 of 100
  INTEG_INFO| Started with Integration point  70 of 100
  INTEG_INFO| Started with Integration point  71 of 100
  INTEG_INFO| Started with Integration point  72 of 100
  INTEG_INFO| Started with Integration point  73 of 100
  INTEG_INFO| Started with Integration point  74 of 100
  INTEG_INFO| Started with Integration point  75 of 100
  INTEG_INFO| Started with Integration point  76 of 100
  INTEG_INFO| Started with Integration point  77 of 100
  INTEG_INFO| Started with Integration point  78 of 100
  INTEG_INFO| Started with Integration point  79 of 100
  INTEG_INFO| Started with Integration point  80 of 100
  INTEG_INFO| Started with Integration point  81 of 100
  INTEG_INFO| Started with Integration point  82 of 100
  INTEG_INFO| Started with Integration point  83 of 100
  INTEG_INFO| Started with Integration point  84 of 100
  INTEG_INFO| Started with Integration point  85 of 100
  INTEG_INFO| Started with Integration point  86 of 100
  INTEG_INFO| Started with Integration point  87 of 100
  INTEG_INFO| Started with Integration point  88 of 100
  INTEG_INFO| Started with Integration point  89 of 100
  INTEG_INFO| Started with Integration point  90 of 100
  INTEG_INFO| Started with Integration point  91 of 100
  INTEG_INFO| Started with Integration point  92 of 100
  INTEG_INFO| Started with Integration point  93 of 100
  INTEG_INFO| Started with Integration point  94 of 100
  INTEG_INFO| Started with Integration point  95 of 100
  INTEG_INFO| Started with Integration point  96 of 100
  INTEG_INFO| Started with Integration point  97 of 100
  INTEG_INFO| Started with Integration point  98 of 100
  INTEG_INFO| Started with Integration point  99 of 100
  INTEG_INFO| Started with Integration point 100 of 100
  PERFORMANCE| Average DGEMM flop rate (Gflops / MPI rank):                 0.01
  
  
  ******************************************************************************
  **                                                                          **
  **                        GW QUASIPARTICLE ENERGIES                         **
  **                                                                          **
  ******************************************************************************
   
   
  The GW quasiparticle energies are calculated according to: 
   
                      E_GW = E_SCF + Sigc(E_GW) + Sigx - vxc 
   
  Upper equation is solved self-consistently for E_GW, see Eq. (12) in J. Phys.
  Chem. Lett. 9, 306 (2018), doi: 10.1021/acs.jpclett.7b02740
  
  
  ------------
  G0W0 results
  ------------
   
  Molecular orbital   E_SCF (eV)       Sigc (eV)   Sigx-vxc (eV)       E_GW (eV)
     1 ( occ )          -12.0021          0.0909         -4.1622        -16.0734
     2 ( vir )            0.7985         -0.1864          1.3108          1.9230
     3 ( vir )            1.3783         -0.1102          1.0545          2.3225
     4 ( vir )            1.3783         -0.1102          1.0545          2.3225
     5 ( vir )            1.5521         -0.1607          1.1369          2.5283
     6 ( vir )            3.2559         -0.0753          0.7136          3.8943
     7 ( vir )            3.2559         -0.0753          0.7136          3.8943
     8 ( vir )            3.6202         -0.1114          0.9337          4.4424
     9 ( vir )            3.8853         -0.3997          2.0722          5.5578
    10 ( vir )            4.9322         -0.0921          1.0703          5.9103
    11 ( vir )            4.9329         -0.0921          1.0696          5.9103
    12 ( vir )           12.6945         -0.9050          2.5518         14.3413
    13 ( vir )           13.8604         -0.7566          2.3699         15.4738
    14 ( vir )           14.8923         -0.4171          2.9607         17.4359
    15 ( vir )           14.8923         -0.8179          2.9607         17.0351
    16 ( vir )           15.7000         -0.6066          3.3564         18.4498
    17 ( vir )           15.8380         -0.4430          1.8086         17.2037
    18 ( vir )           15.8381         -0.4715          1.8085         17.1751
    19 ( vir )           21.0962         -1.0500          3.8408         23.8870
    20 ( vir )           21.0962         -1.0505          3.8408         23.8865
    21 ( vir )           24.9135         -1.5758          3.9361         27.2738
    22 ( vir )           24.9135         -1.6652          3.9361         27.1845
    23 ( vir )           29.7665         -2.1626          4.8511         32.4550
    24 ( vir )           48.9251         -2.2454          5.9365         52.6161
    25 ( vir )           59.3535          2.2425          7.1805         68.7764
    26 ( vir )           66.4719         -4.0235          6.9213         69.3697
    27 ( vir )           66.4719         -3.9218          6.9213         69.4715
    28 ( vir )           84.4654         -1.6486          7.3129         90.1297
    29 ( vir )           84.4654         -0.6687          7.3129         91.1096
    30 ( vir )           87.2619         -7.1214          7.6965         87.8369
    31 ( vir )           87.2619         -5.7793          7.6965         89.1791
    32 ( vir )           90.5547          3.7584          7.1865        101.4997
    33 ( vir )           99.9766          4.5924          6.9970        111.5660
    34 ( vir )           99.9766          3.5886          6.9970        110.5622
    35 ( vir )          126.1277          1.8081          8.1385        136.0744
    36 ( vir )          126.8094          3.2718          6.6914        136.7726
    37 ( vir )          126.8094          3.3049          6.6914        136.8057
    38 ( vir )          162.1796          1.3533          7.2197        170.7526
    39 ( vir )          162.1796          1.3086          7.2197        170.7079
    40 ( vir )          176.5822          1.6406         10.1466        188.3694
    41 ( vir )          289.9705          0.1736          4.9941        295.1382
    42 ( vir )          809.3451          0.0459          7.1863        816.5772
    43 ( vir )          809.3451          0.0469          7.1863        816.5783
    44 ( vir )         1004.0894          0.3343         15.7429       1020.1666
    45 ( vir )         1073.8603          0.3804         14.2950       1088.5357
    46 ( vir )         1392.3716          0.1622         11.5569       1404.0907
   
  G0W0 HOMO-LUMO gap (eV)                                                17.9964
  
  ------------------------------------------------------------------------------
  
 *******************************************************************************
 **                                                                           **
 **           Bethe Salpeter equation (BSE) for excitation energies           **
 **               solved without Tamm-Dancoff approximation (TDA)             **
 **                                                                           **
 *******************************************************************************
  
 BSE| No cutoff given for occupied orbitals
 BSE| No cutoff given for empty orbitals
 BSE| First occupied index                                                     1
 BSE| Last empty index (not MO index!)                                        45
 BSE| Energy of first occupied index [eV]                                -16.073
 BSE| Energy of last empty index [eV]                                   1404.091
 BSE| Energy difference of first occupied index to HOMO [eV]              -0.000
 BSE| Energy difference of last empty index to LUMO [eV]                1402.168
 BSE| Number of GW-corrected occupied MOs                                      1
 BSE| Number of GW-corrected empty MOs                                        45
 BSE|
 BSE| No truncation of BSE matrices applied
 BSE|
 BSE| Total peak memory estimate from BSE [GB]                         1.509E-04
 BSE| Peak memory estimate per MPI rank from BSE [GB]                      0.000
 BSE|
 BSE| Diagonalizing aux. matrix with size of A. This will take around 0.E+00 s.
 BSE| Diagonalizing C. This will take around 0.E+00 s.
 BSE|
 BSE|
 BSE| **************************************************************************
 BSE| *      Full ("ABBA") Bethe Salpeter equation (BSE) (i.e. without TDA)    *
 BSE| **************************************************************************
 BSE|
 BSE| The excitations are calculated by diagonalizing the BSE without the TDA:
 BSE|
 BSE|                |A B| |X^n|       |1  0| |X^n|
 BSE|                |B A| |Y^n| = ^n |0 -1| |Y^n|
 BSE|
 BSE| i.e. in index notation:
 BSE|
 BSE|   sum_jb ( A_ia,jb   X_jb^n + B_ia,jb   Y_jb^n ) = ^n X_ia^n
 BSE| - sum_jb ( B_ia,jb   X_jb^n + A_ia,jb   Y_jb^n ) = ^n Y_ia^n
 BSE|
 BSE|
 BSE| i,j:       occupied molecular orbitals, i.e. state in          [   1,   1]
 BSE| a,b:       unoccupied molecular orbitals, i.e. state in        [   2,  46]
 BSE| n:         Excitation index
 BSE|
[...]
 -                                                                             -
 -                         MESSAGE PASSING PERFORMANCE                         -
 -                                                                             -
 -------------------------------------------------------------------------------

 ROUTINE             CALLS      AVE VOLUME [Bytes]
 MP_Group              200
 MP_Bcast              706                 239665.
 MP_Allreduce         6021                   1900.
 MP_Sync               705
 MP_Alltoall          1584              108903455.
 MP_SendRecv          2671                 529907.
 MP_ISendRecv         5290                 273881.
 MP_Wait             16045
 MP_comm_split         108
 MP_ISend            10127                1879465.
 MP_IRecv            10099                1884675.
 -------------------------------------------------------------------------------


 -------------------------------------------------------------------------------
 -                                                                             -
 -                           R E F E R E N C E S                               -
 -                                                                             -
 -------------------------------------------------------------------------------
 
 CP2K version 2025.1 (Development Version), the CP2K developers group (2025).
 CP2K is freely available from https://www.cp2k.org/ .
 
 T. D. Kuehne, M. Iannuzzi, M. Del Ben, V. V. Rybkin, P. Seewald, F. Stein, T. 
 Laino, R. Z. Khaliullin, O. Schuett, F. Schiffmann, D. Golze, J. Wilhelm, S. 
 Chulkov, M. H. Bani-Hashemian, V. Weber, U. Borstnik, M. Taillefumier, A. S. 
 Jakobovits, A. Lazzaro, H. Pabst, T. Mueller, R. Schade, M. Guidon, S. 
 Andermatt, N. Holmberg, G. K. Schenter, A. Hehn, A. Bussy, F. Belleflamme, G. 
 Tabacchi, A. Gloess, M. Lass, I. Bethune, C. J. Mundy, C. Plessl, M. Watkins, 
 J. VandeVondele, M. Krack, J. Hutter.
 J. Chem. Phys. 152, 194103 (2020).
 CP2K: An electronic structure and molecular dynamics software package - 
 Quickstep: Efficient and accurate electronic structure calculations.
 https://doi.org/10.1063/5.0007045

 J. Wilhelm, D. Golze, L. Talirz, J. Hutter, C. A. Pignedoli.
 J. Phys. Chem. Lett. 9, 306-312 (2018).
 Toward GW calculations on thousands of atoms.
 https://doi.org/10.1021/acs.jpclett.7b02740

 J. Wilhelm, J. Hutter.
 Phys. Rev. B 95, 235123 (2017).
 Periodic GW calculations in the Gaussian and plane-waves scheme.
 https://doi.org/10.1103/PhysRevB.95.235123

 O. Schuett, P. Messmer, J. Hutter, J. VandeVondele.
 Electronic Structure Calculations on Graphics Processing Units, 173-190 (2016).
 GPU-Accelerated Sparse Matrix-Matrix Multiplication for Linear Scaling Density 
 Functional Theory.
 https://doi.org/10.1002/9781118670712.ch8

 J. Wilhelm, M. Del Ben, J. Hutter.
 J. Chem. Theory Comput. 12, 3623-3635 (2016).
 GW in the Gaussian and plane waves scheme with application to linear acenes.
 https://doi.org/10.1021/acs.jctc.6b00380

 M. Del Ben, O. Schuett, T. Wentz, P. Messmer, J. Hutter, J. VandeVondele.
 Comput. Phys. Commun. 187, 120-129 (2015).
 Enabling simulation at the fifth rung of DFT: Large scale RPA calculations with 
 excellent time to solution.
 https://doi.org/10.1016/j.cpc.2014.10.021

 J. Hutter, M. Iannuzzi, F. Schiffmann, J. VandeVondele.
 WIREs Comput Mol Sci. 4, 15-25 (2014).
 CP2K: atomistic simulations of condensed matter systems.
 https://doi.org/10.1002/wcms.1159

 U. Borstnik, J. VandeVondele, V. Weber, J. Hutter.
 Parallel Comput. 40, 47-58 (2014).
 Sparse matrix multiplication: The distributed block-compressed sparse row 
 library.
 https://doi.org/10.1016/j.parco.2014.03.012

 M. Del Ben, J. Hutter, J. VandeVondele.
 J. Chem. Theory Comput. 9, 2654-2671 (2013).
 Electron Correlation in the Condensed Phase from a Resolution of Identity 
 Approach Based on the Gaussian and Plane Waves Scheme.
 https://doi.org/10.1021/ct4002202

 M. Del Ben, J. Hutter, J. VandeVondele.
 J. Chem. Theory Comput. 8, 4177-4188 (2012).
 Second-Order Moller-Plesset Perturbation Theory in the Condensed Phase: An 
 Efficient and Massively Parallel Gaussian and Plane Waves Approach.
 https://doi.org/10.1021/ct300531w

 M. Guidon, J. Hutter, J. VandeVondele.
 J. Chem. Theory Comput. 5, 3010-3021 (2009).
 Robust Periodic Hartree-Fock Exchange for Large-Scale Simulations Using 
 Gaussian Basis Sets.
 https://doi.org/10.1021/ct900494g

 M. Guidon, F. Schiffmann, J. Hutter, J. VandeVondele.
 J. Chem. Phys. 128, 214104 (2008).
 Ab initio molecular dynamics using hybrid density functionals.
 https://doi.org/10.1063/1.2931945

 L. Genovese, T. Deutsch, S. Goedecker.
 J. Chem. Phys. 127, 054704 (2007).
 Efficient and accurate three-dimensional Poisson solver for surface problems.
 https://doi.org/10.1063/1.2754685

 J. VandeVondele, J. Hutter.
 J. Chem. Phys. 127, 114105 (2007).
 Gaussian basis sets for accurate calculations on molecular systems in gas and 
 condensed phases.
 https://doi.org/10.1063/1.2770708

 L. Genovese, T. Deutsch, A. Neelov, S. Goedecker, G. Beylkin.
 J. Chem. Phys. 125, 074105 (2006).
 Efficient solution of Poisson's equation with free boundary conditions.
 https://doi.org/10.1063/1.2335442

 M. Frigo, S. G. Johnson.
 Proc. IEEE 93, 216-231 (2005).
 The design and implementation of FFTW3.
 https://doi.org/10.1109/JPROC.2004.840301

 M. Krack, M. Parrinello.
 Phys. Chem. Chem. Phys. 2, 2105-2112 (2000).
 All-electron ab-initio molecular dynamics.
 https://doi.org/10.1039/b001167n

 G. Lippert, J. Hutter, M. Parrinello.
 Theor. Chem. Acc. 103, 124-140 (1999).
 The Gaussian and augmented-plane-wave density functional method for ab initio 
 molecular dynamics simulations.
 https://doi.org/10.1007/s002140050523

 J. P. Perdew, K. Burke, M. Ernzerhof.
 Phys. Rev. Lett. 77, 3865-3868 (1996).
 Generalized gradient approximation made simple.
 https://doi.org/10.1103/PhysRevLett.77.3865


 -------------------------------------------------------------------------------
 -                                                                             -
 -                                T I M I N G                                  -
 -                                                                             -
 -------------------------------------------------------------------------------
 SUBROUTINE                       CALLS  ASD         SELF TIME        TOTAL TIME
                                MAXIMUM       AVERAGE  MAXIMUM  AVERAGE  MAXIMUM
 CP2K                                 1  1.0    0.046    0.074  301.618  301.618
 qs_energies                          1  2.0    0.001    0.001  300.371  300.606
 scf_env_do_scf                       1  3.0    0.000    0.000  295.996  295.996
 scf_env_do_scf_inner_loop           56  4.0    0.002    0.003  295.996  295.996
 qs_ks_build_kohn_sham_matrix        57  7.0    0.009    0.010  225.370  225.375
 qs_ks_update_qs_env                 56  5.0    0.000    0.000  222.964  222.969
 rebuild_ks_matrix                   56  6.0    0.000    0.000  222.961  222.966
 fft_wrap_pw1pw2                   1188  9.9    0.028    0.036  134.062  135.229
 fft_wrap_pw1pw2_250                846 11.1    6.067    6.794  130.015  131.265
 fft3d_ps                          1188 11.9   57.886   60.091  104.980  105.992
 pw_poisson_solve                    57  8.0    2.484    2.537   91.610   91.644
 qs_vxc_create                       57  8.0    0.001    0.001   80.862   80.862
 xc_vxc_pw_create                    56  9.0    1.486    1.568   80.861   80.861
 ps_wavelet_solve                    57  9.0   51.357   54.246   60.496   60.648
 xc_pw_derive                       336 11.0    0.004    0.005   58.311   59.096
 mp_alltoall_d54                     57 10.0    5.292   47.084    5.292   47.084
 xc_rho_set_and_dset_create          56 10.0    1.196    1.359   40.211   40.968
 gspace_mixing                       55  5.0    1.074    1.085   39.730   39.730
 xc_pw_divergence                    56 10.0    0.002    0.003   38.518   39.132
 mp_alltoall_z22v                  1188 13.9   28.577   36.954   28.577   36.954
 qs_rho_update_rho_low               57  5.0    0.001    0.001   33.633   33.633
 calculate_rho_elec                  57  6.0    1.114    1.125   33.581   33.581
 broyden_mixing                      55  6.0   29.981   30.289   30.389   30.460
 x_to_yz                            621 13.1   12.531   12.707   26.664   27.271
 yz_to_x                            567 12.8    5.970    7.216   20.413   25.665
 density_rs2pw                       57  7.0    0.004    0.005   25.159   25.343
 sum_up_and_integrate                57  8.0    0.001    0.001   17.871   17.899
 integrate_v_rspace                  57  9.0    0.001    0.002   17.520   17.577
 potential_pw2rs                     57 10.0    0.052    0.061   17.340   17.398
 prepare_gapw_den                    57  8.0    0.001    0.001   14.180   14.425
 put_rho0_on_grid                    57  9.0    1.116    1.127   13.830   14.074
 pw_scatter_p                       621 12.1    9.838   10.007    9.838   10.007
 transfer_pw2rs                     286 10.6    0.005    0.006    9.845    9.900
 pw_gather_p                        567 11.8    8.140    8.796    8.140    8.796
 xc_functional_eval                 168 10.9    0.001    0.001    8.161    8.704
 pbe_lda_eval                       168 11.9    8.161    8.704    8.161    8.704
 transfer_rs2pw                     286  8.4    0.008    0.010    8.373    8.479
 mp_waitany                        9632 11.5    6.618    7.353    6.618    7.353
 transfer_pw2rs_250                 115 10.9    2.687    2.865    7.194    7.302
 grid_collocate_task_list            57  7.0    7.068    7.153    7.068    7.153
 pw_derive                          507 11.3    6.731    7.075    6.731    7.075
 transfer_rs2pw_250                 115 10.0    2.806    2.892    6.142    6.293
 hfx_ks_matrix                       57  8.0    0.002    0.002    5.491    5.559
 integrate_four_center               57  9.0    1.186    2.441    5.488    5.555
 mp_sync                            705  9.3    3.747    5.112    3.747    5.112
 integrate_vhg0_rspace               57  8.0    0.014    0.017    4.480    4.486
 mp_alltoall_d45                     58 10.0    3.250    4.307    3.250    4.307
 mp_sum_d                          1663  6.0    2.131    4.064    2.131    4.064
 fft_wrap_pw1pw2_90                 114 10.5    0.171    0.230    3.333    3.915
 pw_copy                            850 10.6    3.603    3.841    3.603    3.841
 cp2k_distribution_to_z_slices       57  9.0    2.262    2.375    3.341    3.570
 pw_poisson_set                      58  8.9    0.002    0.002    3.366    3.401
 mp2_main                             1  3.0    0.000    0.000    3.119    3.353
 pw_copy_to_array                   567 11.8    3.030    3.227    3.030    3.227
 integrate_four_center_main          57 10.0    0.121    2.705    0.242    2.881
 mp_alltoall_d11v                  1032  9.4    2.172    2.872    2.172    2.872
 integrate_four_center_bin         4517 11.0    0.122    2.865    0.122    2.865
 pw_axpy                            565  9.3    2.493    2.726    2.493    2.726
 compute_vec_Sigma_x_minus_vxc_       1  4.0    0.000    0.000    2.413    2.413
 rs_grid_zero                       287 11.1    2.246    2.297    2.246    2.297
 pw_integral_ab_c1d_c1d_gs           57  9.0    1.692    1.870    2.014    2.137
 pw_copy_from_array                 621 12.1    1.774    2.079    1.774    2.079
 pw_poisson_rebuild                  57  9.0    0.000    0.000    1.819    1.845
 ps_wavelet_create                    1 10.0    0.000    0.000    1.819    1.845
 RS_z_slice_distribution              1 11.0    1.660    1.714    1.819    1.845
 transfer_pw2rs_90                   57 12.0    0.431    0.466    1.312    1.420
 pw_zero                            338 10.3    1.170    1.224    1.170    1.224
 transfer_rs2pw_90                   57  9.0    0.345    0.380    1.050    1.164
 mp_isend_dv                       9781 11.6    0.777    1.117    0.777    1.117
 transfer_pw2rs_30                   57 12.0    0.635    0.701    1.028    1.072
 mp_waitall_1                     10146 12.1    0.643    1.059    0.643    1.059
 init_scf_run                         1  3.0    0.000    0.000    1.020    1.021
 scf_env_initial_rho_setup            1  4.0    0.000    0.000    1.018    1.018
 transfer_rs2pw_30                   57  9.0    0.487    0.504    0.931    0.955
 qs_init_subsys                       1  2.0    0.007    0.008    0.855    0.856
 qs_env_setup                         1  3.0    0.000    0.000    0.845    0.847
 qs_env_rebuild_pw_env                2  3.5    0.000    0.000    0.844    0.846
 pw_env_rebuild                       1  5.0    0.001    0.001    0.844    0.846
 pw_grid_setup                        4  6.0    0.000    0.000    0.836    0.838
 pw_grid_setup_internal               4  7.0    0.020    0.024    0.836    0.838
 scale_and_distribute               114 10.0    0.756    0.788    0.756    0.788
 Vh_1c_gg_integrals                  57  8.0    0.007    0.062    0.246    0.758
 mp_sum_dm                          403  7.6    0.428    0.752    0.428    0.752
 pw_grid_sort                         4  8.0    0.471    0.476    0.669    0.676
 mp_isend_dm3                      1376 11.5    0.327    0.625    0.327    0.625
 mp_sendrecv_dv                    2622 10.0    0.594    0.621    0.594    0.621
 fft_wrap_pw1pw2_30                 114 10.5    0.028    0.033    0.559    0.587
 calculate_vxc_atom                  57  8.0    0.013    0.083    0.584    0.584
 mp_irecv_dm3                      1376 11.5    0.327    0.558    0.327    0.558
 mp_max_i                           534  2.7    0.250    0.537    0.250    0.537
 mp2_gpw_main                         1  4.0    0.000    0.000    0.522    0.532
 mp_sum_dv                         2416 10.8    0.385    0.515    0.385    0.515
 gaVxcgb_GC                          56  9.0    0.038    0.461    0.038    0.461
 rpa_ri_compute_en                    1  5.0    0.000    0.000    0.439    0.439
 rpa_num_int                          1  6.0    0.001    0.001    0.436    0.437
 pw_scale                           225  9.5    0.370    0.428    0.370    0.428
 mp_sum_i                            17  9.9    0.235    0.403    0.235    0.403
 restraint_control                    1  2.0    0.000    0.000    0.234    0.402
 mp2_main_alloc_hfx                   1  4.0    0.168    0.402    0.168    0.402
 qs_scf_new_mos                      56  5.0    0.001    0.001    0.370    0.372
 calculate_rho_atom                  57  9.0    0.083    0.342    0.083    0.342
 transfer_pw2rs_10                   57 12.0    0.138    0.145    0.306    0.334
 compute_GW_self_energy             100  7.0    0.001    0.001    0.291    0.317
 mp_isendrecv_dv                   5244 12.0    0.161    0.304    0.161    0.304
 mixing_init                          1  5.0    0.288    0.293    0.293    0.294
 compute_GW_self_energy_deep        100  8.0    0.214    0.238    0.265    0.290
 calc_screening_functions             1 10.0    0.254    0.258    0.272    0.277
 transfer_rs2pw_10                   57  9.0    0.091    0.098    0.242    0.255
 eigensolver                         57  6.0    0.003    0.004    0.203    0.204
 sort_shells                          4  9.0    0.197    0.203    0.197    0.203
 xc_pw_smooth                        56 10.0    0.000    0.000    0.155    0.201
 cp_fm_syevd                         60  7.0    0.000    0.001    0.196    0.197
 rs_gather_matrices                  57 10.0    0.001    0.003    0.127    0.184
 grid_integrate_task_list            57 10.0    0.052    0.169    0.052    0.169
 cp_fm_redistribute_end              60  8.1    0.091    0.164    0.092    0.165
 scf_post_calculation_gpw             1  3.0    0.000    0.000    0.149    0.149
 write_available_results              1  4.0    0.000    0.000    0.149    0.149
 write_mo_free_results                1  5.0    0.026    0.027    0.149    0.149
 cp_fm_syevd_base                    60  8.1    0.072    0.145    0.072    0.145
 fft_wrap_pw1pw2_10                 114 10.5    0.006    0.008    0.128    0.141
 calculate_dm_sparse                 56  6.0    0.000    0.001    0.124    0.126
 cp_dbcsr_plus_fm_fm_t               56  7.0    0.001    0.001    0.124    0.126
 pw_grid_assign                       4  8.0    0.104    0.108    0.105    0.108
 dbcsr_multiply_generic              77  8.1    0.004    0.004    0.102    0.105
 rpa_num_int_RPA_matrix_operati     100  7.0    0.001    0.002    0.087    0.087
 qs_energies_init_hamiltonians        1  3.0    0.000    0.000    0.087    0.087
 build_core_hamiltonian_matrix        1  4.0    0.000    0.000    0.083    0.083
 overlap_condnum                      1  5.0    0.000    0.000    0.081    0.081
 mp_irecv_dv                       9771 11.6    0.048    0.074    0.048    0.074
 parallel_gemm_fm                   217  9.5    0.000    0.000    0.070    0.073
 parallel_gemm_fm_gemm              217 10.5    0.000    0.000    0.070    0.072
 cp_fm_gemm                         217 11.5    0.070    0.072    0.070    0.072
 mp2_ri_gpw_compute_in                1  5.0    0.000    0.000    0.068    0.068
 calc_mat_Q                         100  8.0    0.000    0.000    0.064    0.065
 mp2_ri_gpw_compute_in_loop           1  6.0    0.000    0.000    0.065    0.065
 arnoldi_conjugate_gradient           5  6.0    0.002    0.003    0.064    0.064
 contract_S_to_Q                    100  9.0    0.000    0.000    0.063    0.064
 calculate_hirshfeld_normalizat       1  6.0    0.000    0.000    0.061    0.062
 hirshfeld_integration                1  6.0    0.000    0.000    0.060    0.062
 contract_B_L                         4  7.0    0.001    0.001    0.055    0.059
 dbcsr_complete_redistribute        191  8.4    0.007    0.009    0.057    0.058
 copy_dbcsr_to_fm                    75  6.4    0.001    0.002    0.053    0.056
 make_m2s                           154  9.1    0.003    0.003    0.053    0.056
 cp_fm_to_fm_submat_general         112 10.1    0.051    0.052    0.051    0.052
 calculate_rho_atom_coeff            57  6.0    0.009    0.020    0.051    0.051
 dbt_total                            8  8.0    0.000    0.000    0.040    0.040
 create_qs_kind_set                   1  2.0    0.000    0.000    0.039    0.039
 read_qs_kind                         1  3.0    0.012    0.017    0.039    0.039
 offload_free_buffer                 65  8.3    0.033    0.039    0.033    0.039
 dbcsr_sym_matrix_vector_mult       280  7.0    0.004    0.005    0.029    0.038
 dbt_contract                         4  9.0    0.001    0.001    0.037    0.037
 vxc_of_r_new                       112  9.0    0.000    0.005    0.003    0.036
 dbcsr_finalize                    1680 10.8    0.006    0.011    0.019    0.034
 integrate_four_center_getP          57 10.0    0.003    0.003    0.025    0.034
 multiply_cannon                     77  9.1    0.006    0.006    0.032    0.033
 copy_fm_to_dbcsr                   116  8.1    0.000    0.000    0.031    0.032
 pw_grid_remap                        4  8.0    0.014    0.014    0.027    0.031
 cp_fm_redistribute_start            60  8.1    0.025    0.025    0.031    0.031
 -------------------------------------------------------------------------------

 The number of warnings for this run is : 1
 
 -------------------------------------------------------------------------------
  **** **** ******  **  PROGRAM ENDED AT                 2025-03-03 04:37:37.619
 ***** ** ***  *** **   PROGRAM RAN ON                              i04r08c02s02
 **    ****   ******    PROGRAM RAN BY                                   di38fab
 ***** **    ** ** **   PROGRAM PROCESS ID                               2907970
  **** **  *******  **  PROGRAM STOPPED IN /hppfs/scratch/04/di38fab/05_MOL/W4-1
                                           1+ALK/h2/TZVP
