 DBCSR| CPU Multiplication driver                                           BLAS (U)
 DBCSR| Multrec recursion limit                                              512 (U)
 DBCSR| Multiplication stack size                                           1000 (D)
 DBCSR| Maximum elements for images                                    UNLIMITED (U)
 DBCSR| Multiplicative factor virtual images                                   1 (U)
 DBCSR| Use multiplication densification                                       T (D)
 DBCSR| Multiplication size stacks                                             3 (U)
 DBCSR| Use memory pool for CPU allocation                                     F (U)
 DBCSR| Number of 3D layers                                               SINGLE (U)
 DBCSR| Use MPI memory allocation                                              F (U)
 DBCSR| Use RMA algorithm                                                      F (U)
 DBCSR| Use Communication thread                                               T (U)
 DBCSR| Communication thread load                                             75 (D)
 DBCSR| MPI: My process id                                                     0
 DBCSR| MPI: Number of processes                                              24
 DBCSR| OMP: Current number of threads                                         4
 DBCSR| OMP: Max number of threads                                             4
 DBCSR| Split modifier for TAS multiplication algorithm                  1.0E+00 (U)


  **** **** ******  **  PROGRAM STARTED AT               2025-02-26 21:58:20.036
 ***** ** ***  *** **   PROGRAM STARTED ON                          i02r08c01s03
 **    ****   ******    PROGRAM STARTED BY                               di38fab
 ***** **    ** ** **   PROGRAM PROCESS ID                               3596958
  **** **  *******  **  PROGRAM STARTED IN /hppfs/scratch/04/di38fab/05_MOL/W4-1
                                           1/h2/TZVP

 CP2K| version string:                 CP2K version 2025.1 (Development Version)
 CP2K| source code revision number:                                  git:47877ba
 CP2K| cp2kflags: omp libint fftw3 libxc parallel scalapack max_contr=4         
 CP2K| is freely available from                            https://www.cp2k.org/
 CP2K| Program compiled at                          Thu Feb 20 16:00:34 CET 2025
 CP2K| Program compiled on                                               login04
 CP2K| Program compiled for                                        Supermuc-foss
 CP2K| Data directory path          /hppfs/work/pn36zo/di38fab/newcp2k/cp2k/data
 CP2K| Input file name                                                    GW.inp

 GLOBAL| Force Environment number                                              1
 GLOBAL| Basis set file name            /hppfs/scratch/04/di38fab/04_TMD/BASIS_A
 GLOBAL| Potential file name            /hppfs/work/pn36zo/di38fab/cp2k/data/ALL
 GLOBAL| MM Potential file name                                     MM_POTENTIAL
 GLOBAL| Coordinate file name                                      __STD_INPUT__
 GLOBAL| Method name                                                        CP2K
 GLOBAL| Project name                                                       MoS2
 GLOBAL| Run type                                                         ENERGY
 GLOBAL| FFT library                                                       FFTW3
 GLOBAL| Diagonalization library                                       ScaLAPACK
 GLOBAL| DGEMM library                                                      BLAS
 GLOBAL| Orthonormality check for eigenvectors                          DISABLED
 GLOBAL| Matrix multiplication library                                 ScaLAPACK
 GLOBAL| All-to-all communication in single precision                          F
 GLOBAL| FFTs using library dependent lengths                                  F
 GLOBAL| Grid backend                                                       AUTO
 GLOBAL| Global print level                                               MEDIUM
 GLOBAL| MPI I/O enabled                                                       T
 GLOBAL| Total number of message passing processes                            24
 GLOBAL| Number of threads for this process                                    4
 GLOBAL| This output is from process                                           0
 GLOBAL| OpenMP stack size per thread (OMP_STACKSIZE)                    default
 GLOBAL| CPU model name             Intel(R) Xeon(R) Platinum 8174 CPU @ 3.10GHz

 MEMORY| system memory details [Kb]
 MEMORY|                        rank 0           min           max       average
 MEMORY| MemTotal             98436660      98436660      98436664      98436662
 MEMORY| MemFree              84705588      84705588      84763356      84734472
 MEMORY| Buffers                     0             0             0             0
 MEMORY| Cached                2392904       2389608       2392904       2391256
 MEMORY| Slab                  1151792       1137064       1151792       1144428
 MEMORY| SReclaimable           254024        254024        254532        254278
 MEMORY| MemLikelyFree        87352516      87352516      87407496      87380006


 *** Fundamental physical constants (SI units) ***

 *** Literature: B. J. Mohr and B. N. Taylor,
 ***             CODATA recommended values of the fundamental physical
 ***             constants: 2006, Web Version 5.1
 ***             http://physics.nist.gov/constants

 Speed of light in vacuum [m/s]                             2.99792458000000E+08
 Magnetic constant or permeability of vacuum [N/A**2]       1.25663706143592E-06
 Electric constant or permittivity of vacuum [F/m]          8.85418781762039E-12
 Planck constant (h) [J*s]                                  6.62606896000000E-34
 Planck constant (h-bar) [J*s]                              1.05457162825177E-34
 Elementary charge [C]                                      1.60217648700000E-19
 Electron mass [kg]                                         9.10938215000000E-31
 Electron g factor [ ]                                     -2.00231930436220E+00
 Proton mass [kg]                                           1.67262163700000E-27
 Fine-structure constant                                    7.29735253760000E-03
 Rydberg constant [1/m]                                     1.09737315685270E+07
 Avogadro constant [1/mol]                                  6.02214179000000E+23
 Boltzmann constant [J/K]                                   1.38065040000000E-23
 Atomic mass unit [kg]                                      1.66053878200000E-27
 Bohr radius [m]                                            5.29177208590000E-11

 *** Conversion factors ***

 [u] -> [a.u.]                                              1.82288848426455E+03
 [Angstrom] -> [Bohr] = [a.u.]                              1.88972613288564E+00
 [a.u.] = [Bohr] -> [Angstrom]                              5.29177208590000E-01
 [a.u.] -> [s]                                              2.41888432650478E-17
 [a.u.] -> [fs]                                             2.41888432650478E-02
 [a.u.] -> [J]                                              4.35974393937059E-18
 [a.u.] -> [N]                                              8.23872205491840E-08
 [a.u.] -> [K]                                              3.15774647902944E+05
 [a.u.] -> [kJ/mol]                                         2.62549961709828E+03
 [a.u.] -> [kcal/mol]                                       6.27509468713739E+02
 [a.u.] -> [Pa]                                             2.94210107994716E+13
 [a.u.] -> [bar]                                            2.94210107994716E+08
 [a.u.] -> [atm]                                            2.90362800883016E+08
 [a.u.] -> [eV]                                             2.72113838565563E+01
 [a.u.] -> [Hz]                                             6.57968392072181E+15
 [a.u.] -> [1/cm] (wave numbers)                            2.19474631370540E+05
 [a.u./Bohr**2] -> [1/cm]                                   5.14048714338585E+03
 

 CELL_TOP| Volume [angstrom^3]:                                     27000.000000
 CELL_TOP| Vector a [angstrom    30.000     0.000     0.000   |a| =    30.000000
 CELL_TOP| Vector b [angstrom     0.000    30.000     0.000   |b| =    30.000000
 CELL_TOP| Vector c [angstrom     0.000     0.000    30.000   |c| =    30.000000
 CELL_TOP| Angle (b,c), alpha [degree]:                                90.000000
 CELL_TOP| Angle (a,c), beta  [degree]:                                90.000000
 CELL_TOP| Angle (a,b), gamma [degree]:                                90.000000
 CELL_TOP| Numerically orthorhombic:                                         YES
 CELL_TOP| Periodicity                                                      NONE

 GENERATE|  Preliminary Number of Bonds generated:                             0
 GENERATE|  Achieved consistency in connectivity generation.

 CELL| Volume [angstrom^3]:                                         27000.000000
 CELL| Vector a [angstrom]:      30.000     0.000     0.000   |a| =    30.000000
 CELL| Vector b [angstrom]:       0.000    30.000     0.000   |b| =    30.000000
 CELL| Vector c [angstrom]:       0.000     0.000    30.000   |c| =    30.000000
 CELL| Angle (b,c), alpha [degree]:                                    90.000000
 CELL| Angle (a,c), beta  [degree]:                                    90.000000
 CELL| Angle (a,b), gamma [degree]:                                    90.000000
 CELL| Numerically orthorhombic:                                             YES
 CELL| Periodicity                                                          NONE

 CELL_REF| Volume [angstrom^3]:                                     27000.000000
 CELL_REF| Vector a [angstrom    30.000     0.000     0.000   |a| =    30.000000
 CELL_REF| Vector b [angstrom     0.000    30.000     0.000   |b| =    30.000000
 CELL_REF| Vector c [angstrom     0.000     0.000    30.000   |c| =    30.000000
 CELL_REF| Angle (b,c), alpha [degree]:                                90.000000
 CELL_REF| Angle (a,c), beta  [degree]:                                90.000000
 CELL_REF| Angle (a,b), gamma [degree]:                                90.000000
 CELL_REF| Numerically orthorhombic:                                         YES
 CELL_REF| Periodicity                                                      NONE

 *******************************************************************************
                                    Kpoints
 *******************************************************************************
 BRILLOUIN|                                              Gamma-point calculation
 BRILLOUIN| K-Point point group symmetrization                               OFF
 BRILLOUIN| Wavefunction type                                            COMPLEX
 *******************************************************************************

 *******************************************************************************
 *******************************************************************************
 **                                                                           **
 **     #####                         ##              ##                      **
 **    ##   ##            ##          ##              ##                      **
 **   ##     ##                       ##            ######                    **
 **   ##     ##  ##   ##  ##   #####  ##  ##   ####   ##    #####    #####    **
 **   ##     ##  ##   ##  ##  ##      ## ##   ##      ##   ##   ##  ##   ##   **
 **   ##  ## ##  ##   ##  ##  ##      ####     ###    ##   ######   ######    **
 **    ##  ###   ##   ##  ##  ##      ## ##      ##   ##   ##       ##        **
 **     #######   #####   ##   #####  ##  ##  ####    ##    #####   ##        **
 **           ##                                                    ##        **
 **                                                                           **
 **                                                ... make the atoms dance   **
 **                                                                           **
 **            Copyright (C) by CP2K developers group (2000-2025)             **
 **                      J. Chem. Phys. 152, 194103 (2020)                    **
 **                                                                           **
 *******************************************************************************

 DFT| Spin restricted Kohn-Sham (RKS) calculation                            RKS
 DFT| Multiplicity                                                             1
 DFT| Number of spin states                                                    1
 DFT| Charge                                                                   0
 DFT| Self-interaction correction (SIC)                                       NO
 DFT| Cutoffs: density                                              1.000000E-10
 DFT|          gradient                                             1.000000E-10
 DFT|          tau                                                  1.000000E-10
 DFT|          cutoff_smoothing_range                               0.000000E+00
 DFT| XC density smoothing                                                  NONE
 DFT| XC derivatives                                                          PW

 FUNCTIONAL| PBE:
 FUNCTIONAL| J.P.Perdew, K.Burke, M.Ernzerhof, Phys. Rev. Letter, vol. 77, n 18,
 FUNCTIONAL|  pp. 3865-3868, (1996) {spin unpolarized}                          


 QS| Method:                                                                GAPW
 QS| Density plane wave grid type                        NON-SPHERICAL FULLSPACE
 QS| Number of grid levels:                                                    4
 QS| Density cutoff [a.u.]:                                                250.0
 QS| Multi grid cutoff [a.u.]: 1) grid level                               250.0
 QS|                           2) grid level                                83.3
 QS|                           3) grid level                                27.8
 QS|                           4) grid level                                 9.3
 QS| Grid level progression factor:                                          3.0
 QS| Relative density cutoff [a.u.]:                                        50.0
 QS| Interaction thresholds: eps_pgf_orb:                                1.0E-12
 QS|                         eps_filter_matrix:                          0.0E+00
 QS|                         eps_core_charge:                            1.0E-14
 QS|                         eps_rho_gspace:                             1.0E-12
 QS|                         eps_rho_rspace:                             1.0E-12
 QS|                         eps_gvg_rspace:                             1.0E-06
 QS|                         eps_ppl:                                    1.0E-02
 QS|                         eps_ppnl:                                   1.0E-08
 QS| GAPW|      One center basis from orbital basis primitives
 QS| GAPW|                   eps_fit:                                    1.0E-04
 QS| GAPW|                   eps_iso:                                    1.0E-12
 QS| GAPW|                   eps_svd:                                    1.0E-08
 QS| GAPW|                   eps_cpc:                                    1.0E-12
 QS| GAPW|   atom-r-grid: quadrature:                                     GC_LOG
 QS| GAPW|      atom-s-grid:  max l :                                          4
 QS| GAPW|      max_l_rho0 :                                                   2


 ATOMIC KIND INFORMATION

  1. Atomic kind: H                                     Number of atoms:       2

     Orbital Basis Set                                        aug-TZVP-MOLOPT-ae

       Number of orbital shell sets:                                           1
       Number of orbital shells:                                               9
       Number of primitive Cartesian functions:                                6
       Number of Cartesian basis functions:                                   25
       Number of spherical basis functions:                                   23
       Norm type:                                                              2

       Normalised Cartesian orbitals:

                        Set   Shell   Orbital            Exponent    Coefficient

                          1       1    1s                0.030000       0.000000
                                                         0.091371      -0.049397
                                                         0.293823      -0.051765
                                                         1.065127       0.831136
                                                         4.947701      -0.270539
                                                        34.177738      -6.423540

                          1       2    2s                0.030000       0.000000
                                                         0.091371      -0.041080
                                                         0.293823       0.227881
                                                         1.065127       0.154529
                                                         4.947701       0.528758
                                                        34.177738       3.211471

                          1       3    3s                0.030000       0.000000
                                                         0.091371       0.076395
                                                         0.293823       0.077306
                                                         1.065127       0.164523
                                                         4.947701      -0.040048
                                                        34.177738      -1.131577

                          1       4    4s                0.030000       0.043550
                                                         0.091371      -0.026138
                                                         0.293823      -0.246542
                                                         1.065127      -0.077212
                                                         4.947701       0.000000
                                                        34.177738       0.000000

                          1       5    2px               0.030000       0.000000
                                                         0.091371       0.008886
                                                         0.293823      -0.007684
                                                         1.065127       1.416453
                                                         4.947701       1.341091
                                                        34.177738     -11.084238
                          1       5    2py               0.030000       0.000000
                                                         0.091371       0.008886
                                                         0.293823      -0.007684
                                                         1.065127       1.416453
                                                         4.947701       1.341091
                                                        34.177738     -11.084238
                          1       5    2pz               0.030000       0.000000
                                                         0.091371       0.008886
                                                         0.293823      -0.007684
                                                         1.065127       1.416453
                                                         4.947701       1.341091
                                                        34.177738     -11.084238

                          1       6    3px               0.030000       0.000000
                                                         0.091371      -0.013062
                                                         0.293823       0.330130
                                                         1.065127       0.106963
                                                         4.947701      -0.549928
                                                        34.177738       9.643751
                          1       6    3py               0.030000       0.000000
                                                         0.091371      -0.013062
                                                         0.293823       0.330130
                                                         1.065127       0.106963
                                                         4.947701      -0.549928
                                                        34.177738       9.643751
                          1       6    3pz               0.030000       0.000000
                                                         0.091371      -0.013062
                                                         0.293823       0.330130
                                                         1.065127       0.106963
                                                         4.947701      -0.549928
                                                        34.177738       9.643751

                          1       7    4px               0.030000       0.014060
                                                         0.091371       0.022273
                                                         0.293823      -0.026384
                                                         1.065127       0.024249
                                                         4.947701       0.000000
                                                        34.177738       0.000000
                          1       7    4py               0.030000       0.014060
                                                         0.091371       0.022273
                                                         0.293823      -0.026384
                                                         1.065127       0.024249
                                                         4.947701       0.000000
                                                        34.177738       0.000000
                          1       7    4pz               0.030000       0.014060
                                                         0.091371       0.022273
                                                         0.293823      -0.026384
                                                         1.065127       0.024249
                                                         4.947701       0.000000
                                                        34.177738       0.000000

                          1       8    3dx2              0.030000       0.000000
                                                         0.091371      -0.004737
                                                         0.293823       0.052231
                                                         1.065127       1.617163
                                                         4.947701      -1.124420
                                                        34.177738       9.702470
                          1       8    3dxy              0.030000       0.000000
                                                         0.091371      -0.008204
                                                         0.293823       0.090468
                                                         1.065127       2.801009
                                                         4.947701      -1.947552
                                                        34.177738      16.805171
                          1       8    3dxz              0.030000       0.000000
                                                         0.091371      -0.008204
                                                         0.293823       0.090468
                                                         1.065127       2.801009
                                                         4.947701      -1.947552
                                                        34.177738      16.805171
                          1       8    3dy2              0.030000       0.000000
                                                         0.091371      -0.004737
                                                         0.293823       0.052231
                                                         1.065127       1.617163
                                                         4.947701      -1.124420
                                                        34.177738       9.702470
                          1       8    3dyz              0.030000       0.000000
                                                         0.091371      -0.008204
                                                         0.293823       0.090468
                                                         1.065127       2.801009
                                                         4.947701      -1.947552
                                                        34.177738      16.805171
                          1       8    3dz2              0.030000       0.000000
                                                         0.091371      -0.004737
                                                         0.293823       0.052231
                                                         1.065127       1.617163
                                                         4.947701      -1.124420
                                                        34.177738       9.702470

                          1       9    4dx2              0.030000       0.002444
                                                         0.091371       0.004703
                                                         0.293823       0.069647
                                                         1.065127       0.196246
                                                         4.947701       0.000000
                                                        34.177738       0.000000
                          1       9    4dxy              0.030000       0.004233
                                                         0.091371       0.008146
                                                         0.293823       0.120632
                                                         1.065127       0.339908
                                                         4.947701       0.000000
                                                        34.177738       0.000000
                          1       9    4dxz              0.030000       0.004233
                                                         0.091371       0.008146
                                                         0.293823       0.120632
                                                         1.065127       0.339908
                                                         4.947701       0.000000
                                                        34.177738       0.000000
                          1       9    4dy2              0.030000       0.002444
                                                         0.091371       0.004703
                                                         0.293823       0.069647
                                                         1.065127       0.196246
                                                         4.947701       0.000000
                                                        34.177738       0.000000
                          1       9    4dyz              0.030000       0.004233
                                                         0.091371       0.008146
                                                         0.293823       0.120632
                                                         1.065127       0.339908
                                                         4.947701       0.000000
                                                        34.177738       0.000000
                          1       9    4dz2              0.030000       0.002444
                                                         0.091371       0.004703
                                                         0.293823       0.069647
                                                         1.065127       0.196246
                                                         4.947701       0.000000
                                                        34.177738       0.000000

     RI Auxiliary Basis Set             RI_aug-TZVP-MOLOPT-ae_N_RI_015_s_p_d_f_g

       Number of orbital shell sets:                                           7
       Number of orbital shells:                                               7
       Number of primitive Cartesian functions:                                7
       Number of Cartesian basis functions:                                   16
       Number of spherical basis functions:                                   15
       Norm type:                                                              2

       Normalised Cartesian orbitals:

                        Set   Shell   Orbital            Exponent    Coefficient

                          1       1    1s                0.422212       0.373300

                          2       1    5px               0.528968       0.643024
                          2       1    5py               0.528968       0.643024
                          2       1    5pz               0.528968       0.643024

                          3       1    2s                0.964505       0.693647

                          4       1    7dx2              1.311589       2.645791
                          4       1    7dxy              1.311589       4.582645
                          4       1    7dxz              1.311589       4.582645
                          4       1    7dy2              1.311589       2.645791
                          4       1    7dyz              1.311589       4.582645
                          4       1    7dz2              1.311589       2.645791

                          5       1    6px               2.125057       3.657239
                          5       1    6py               2.125057       3.657239
                          5       1    6pz               2.125057       3.657239

                          6       1    3s                3.460805       1.808393

                          7       1    4s               10.696328       4.215374

       Atomic covalent radius [Angstrom]:                                  0.320

       Atomic van der Waals radius [Angstrom]:                             1.090

     The atoms of this atomic kind are PAW atoms (GAPW):
       Hard Gaussian function radius:                                      1.200
       Rho0 radius:                                                        1.200
       Maximum GTO radius used for PAW projector construction:            24.566

     GAPW Soft Basis Set                                 aug-TZVP-MOLOPT-ae_soft

       Number of orbital shell sets:                                           1
       Number of orbital shells:                                               9
       Number of primitive Cartesian functions:                                5
       Number of Cartesian basis functions:                                   25
       Number of spherical basis functions:                                   23
       Norm type:                                                              2

       Normalised Cartesian orbitals:

                        Set   Shell   Orbital            Exponent    Coefficient

                          1       1    1s                0.030000       0.000000
                                                         0.091371      -0.049397
                                                         0.293823      -0.051765
                                                         1.065127       0.831136
                                                         4.947701      -0.270539

                          1       2    2s                0.030000       0.000000
                                                         0.091371      -0.041080
                                                         0.293823       0.227881
                                                         1.065127       0.154529
                                                         4.947701       0.528758

                          1       3    3s                0.030000       0.000000
                                                         0.091371       0.076395
                                                         0.293823       0.077306
                                                         1.065127       0.164523
                                                         4.947701      -0.040048

                          1       4    4s                0.030000       0.043550
                                                         0.091371      -0.026138
                                                         0.293823      -0.246542
                                                         1.065127      -0.077212
                                                         4.947701       0.000000

                          1       5    2px               0.030000       0.000000
                                                         0.091371       0.008886
                                                         0.293823      -0.007684
                                                         1.065127       1.416453
                                                         4.947701       1.341091
                          1       5    2py               0.030000       0.000000
                                                         0.091371       0.008886
                                                         0.293823      -0.007684
                                                         1.065127       1.416453
                                                         4.947701       1.341091
                          1       5    2pz               0.030000       0.000000
                                                         0.091371       0.008886
                                                         0.293823      -0.007684
                                                         1.065127       1.416453
                                                         4.947701       1.341091

                          1       6    3px               0.030000       0.000000
                                                         0.091371      -0.013062
                                                         0.293823       0.330130
                                                         1.065127       0.106963
                                                         4.947701      -0.549928
                          1       6    3py               0.030000       0.000000
                                                         0.091371      -0.013062
                                                         0.293823       0.330130
                                                         1.065127       0.106963
                                                         4.947701      -0.549928
                          1       6    3pz               0.030000       0.000000
                                                         0.091371      -0.013062
                                                         0.293823       0.330130
                                                         1.065127       0.106963
                                                         4.947701      -0.549928

                          1       7    4px               0.030000       0.014060
                                                         0.091371       0.022273
                                                         0.293823      -0.026384
                                                         1.065127       0.024249
                                                         4.947701       0.000000
                          1       7    4py               0.030000       0.014060
                                                         0.091371       0.022273
                                                         0.293823      -0.026384
                                                         1.065127       0.024249
                                                         4.947701       0.000000
                          1       7    4pz               0.030000       0.014060
                                                         0.091371       0.022273
                                                         0.293823      -0.026384
                                                         1.065127       0.024249
                                                         4.947701       0.000000

                          1       8    3dx2              0.030000       0.000000
                                                         0.091371      -0.004737
                                                         0.293823       0.052231
                                                         1.065127       1.617163
                                                         4.947701      -1.124420
                          1       8    3dxy              0.030000       0.000000
                                                         0.091371      -0.008204
                                                         0.293823       0.090468
                                                         1.065127       2.801009
                                                         4.947701      -1.947552
                          1       8    3dxz              0.030000       0.000000
                                                         0.091371      -0.008204
                                                         0.293823       0.090468
                                                         1.065127       2.801009
                                                         4.947701      -1.947552
                          1       8    3dy2              0.030000       0.000000
                                                         0.091371      -0.004737
                                                         0.293823       0.052231
                                                         1.065127       1.617163
                                                         4.947701      -1.124420
                          1       8    3dyz              0.030000       0.000000
                                                         0.091371      -0.008204
                                                         0.293823       0.090468
                                                         1.065127       2.801009
                                                         4.947701      -1.947552
                          1       8    3dz2              0.030000       0.000000
                                                         0.091371      -0.004737
                                                         0.293823       0.052231
                                                         1.065127       1.617163
                                                         4.947701      -1.124420

                          1       9    4dx2              0.030000       0.002444
                                                         0.091371       0.004703
                                                         0.293823       0.069647
                                                         1.065127       0.196246
                                                         4.947701       0.000000
                          1       9    4dxy              0.030000       0.004233
                                                         0.091371       0.008146
                                                         0.293823       0.120632
                                                         1.065127       0.339908
                                                         4.947701       0.000000
                          1       9    4dxz              0.030000       0.004233
                                                         0.091371       0.008146
                                                         0.293823       0.120632
                                                         1.065127       0.339908
                                                         4.947701       0.000000
                          1       9    4dy2              0.030000       0.002444
                                                         0.091371       0.004703
                                                         0.293823       0.069647
                                                         1.065127       0.196246
                                                         4.947701       0.000000
                          1       9    4dyz              0.030000       0.004233
                                                         0.091371       0.008146
                                                         0.293823       0.120632
                                                         1.065127       0.339908
                                                         4.947701       0.000000
                          1       9    4dz2              0.030000       0.002444
                                                         0.091371       0.004703
                                                         0.293823       0.069647
                                                         1.065127       0.196246
                                                         4.947701       0.000000

     AE Potential information for                                            ALL

       Description:                                       All-electron potential
                                          Krack, Parrinello, PCCP 2, 2105 (2000)

       Gaussian exponent of the core charge distribution:              12.500000
       Electronic configuration (s p d ...):                           1   0   0


 MOLECULE KIND INFORMATION


 All atoms are their own molecule, skipping detailed information


 TOTAL NUMBERS AND MAXIMUM NUMBERS

  Total number of            - Atomic kinds:                                   1
                             - Atoms:                                          2
                             - Shell sets:                                     2
                             - Shells:                                        18
                             - Primitive Cartesian functions:                 12
                             - Cartesian basis functions:                     50
                             - Spherical basis functions:                     46

  Maximum angular momentum of the orbital basis functions:                     2


 MODULE QUICKSTEP: ATOMIC COORDINATES IN ANGSTROM

   Atom Kind Element         X             Y             Z       Z(eff)     Mass
      1    1 H     1     15.370946     15.000000     15.000000   1.0000   1.0079
      2    1 H     1     14.629054     15.000000     15.000000   1.0000   1.0079



 SCF PARAMETERS         Density guess:                                    ATOMIC
                        --------------------------------------------------------
                        max_scf:                                             500
                        max_scf_history:                                       0
                        max_diis:                                              4
                        --------------------------------------------------------
                        eps_scf:                                        1.00E-09
                        eps_scf_history:                                0.00E+00
                        eps_diis:                                       1.00E-01
                        eps_eigval:                                     1.00E-05
                        --------------------------------------------------------
                        level_shift [a.u.]:                             0.000000
                        added MOs                                        45    0
                        --------------------------------------------------------
                        Mixing method:                            BROYDEN_MIXING
                                                charge density mixing in g-space
                        --------------------------------------------------------
                        No outer SCF

 PW_GRID| Information for grid number                                          1
 PW_GRID| Grid distributed over                                    24 processors
 PW_GRID| Real space group dimensions                                    24    1
 PW_GRID| the grid is blocked:                                                NO
 PW_GRID| Cutoff [a.u.]                                                    250.0
 PW_GRID| spherical cutoff:                                                   NO
 PW_GRID|   Bounds   1           -202     202                Points:         405
 PW_GRID|   Bounds   2           -202     202                Points:         405
 PW_GRID|   Bounds   3           -202     202                Points:         405
 PW_GRID| Volume element (a.u.^3)  0.2743E-02     Volume (a.u.^3)    182205.0337
 PW_GRID| Grid span                                                    FULLSPACE
 PW_GRID|   Distribution                         Average         Max         Min
 PW_GRID|   G-Vectors                          2767921.9     2768175     2767770
 PW_GRID|   G-Rays                                6834.4        6835        6834
 PW_GRID|   Real Space Points                  2767921.9     2788425     2624400

 PW_GRID| Information for grid number                                          2
 PW_GRID| Number of the reference grid                                         1
 PW_GRID| Grid distributed over                                    24 processors
 PW_GRID| Real space group dimensions                                    24    1
 PW_GRID| the grid is blocked:                                                NO
 PW_GRID| Cutoff [a.u.]                                                     83.3
 PW_GRID| spherical cutoff:                                                   NO
 PW_GRID|   Bounds   1           -120     119                Points:         240
 PW_GRID|   Bounds   2           -120     119                Points:         240
 PW_GRID|   Bounds   3           -120     119                Points:         240
 PW_GRID| Volume element (a.u.^3)  0.1318E-01     Volume (a.u.^3)    182205.0337
 PW_GRID| Grid span                                                    FULLSPACE
 PW_GRID|   Distribution                         Average         Max         Min
 PW_GRID|   G-Vectors                           576000.0      576240      575760
 PW_GRID|   G-Rays                                2400.0        2401        2399
 PW_GRID|   Real Space Points                   576000.0      576000      576000

 PW_GRID| Information for grid number                                          3
 PW_GRID| Number of the reference grid                                         1
 PW_GRID| Grid distributed over                                    24 processors
 PW_GRID| Real space group dimensions                                    24    1
 PW_GRID| the grid is blocked:                                                NO
 PW_GRID| Cutoff [a.u.]                                                     27.8
 PW_GRID| spherical cutoff:                                                   NO
 PW_GRID|   Bounds   1            -67      67                Points:         135
 PW_GRID|   Bounds   2            -67      67                Points:         135
 PW_GRID|   Bounds   3            -67      67                Points:         135
 PW_GRID| Volume element (a.u.^3)  0.7406E-01     Volume (a.u.^3)    182205.0337
 PW_GRID| Grid span                                                    FULLSPACE
 PW_GRID|   Distribution                         Average         Max         Min
 PW_GRID|   G-Vectors                           102515.6      102735      102330
 PW_GRID|   G-Rays                                 759.4         761         758
 PW_GRID|   Real Space Points                   102515.6      109350       91125

 PW_GRID| Information for grid number                                          4
 PW_GRID| Number of the reference grid                                         1
 PW_GRID| Grid distributed over                                    24 processors
 PW_GRID| Real space group dimensions                                    24    1
 PW_GRID| the grid is blocked:                                                NO
 PW_GRID| Cutoff [a.u.]                                                      9.3
 PW_GRID| spherical cutoff:                                                   NO
 PW_GRID|   Bounds   1            -40      39                Points:          80
 PW_GRID|   Bounds   2            -40      39                Points:          80
 PW_GRID|   Bounds   3            -40      39                Points:          80
 PW_GRID| Volume element (a.u.^3)  0.3559         Volume (a.u.^3)    182205.0337
 PW_GRID| Grid span                                                    FULLSPACE
 PW_GRID|   Distribution                         Average         Max         Min
 PW_GRID|   G-Vectors                            21333.3       21360       21280
 PW_GRID|   G-Rays                                 266.7         267         266
 PW_GRID|   Real Space Points                    21333.3       25600       19200

 POISSON| Solver                                                         WAVELET
 POISSON| Wavelet| Scaling function                                           40
 POISSON| Periodicity                                                       NONE

 RS_GRID| Information for grid number                                          1
 RS_GRID|   Bounds   1           -202     202                Points:         405
 RS_GRID|   Bounds   2           -202     202                Points:         405
 RS_GRID|   Bounds   3           -202     202                Points:         405
 RS_GRID| Real space distribution over                                  4 groups
 RS_GRID| Real space distribution along direction                              2
 RS_GRID| Border size                                                         31
 RS_GRID| Real space distribution over                                  6 groups
 RS_GRID| Real space distribution along direction                              3
 RS_GRID| Border size                                                         31
 RS_GRID|   Distribution                         Average         Max         Min
 RS_GRID|   Planes                                 163.2         164         163
 RS_GRID|   Distribution                         Average         Max         Min
 RS_GRID|   Planes                                 129.5         130         129

 RS_GRID| Information for grid number                                          2
 RS_GRID|   Bounds   1           -120     119                Points:         240
 RS_GRID|   Bounds   2           -120     119                Points:         240
 RS_GRID|   Bounds   3           -120     119                Points:         240
 RS_GRID| Real space distribution over                                  4 groups
 RS_GRID| Real space distribution along direction                              2
 RS_GRID| Border size                                                         36
 RS_GRID| Real space distribution over                                  6 groups
 RS_GRID| Real space distribution along direction                              3
 RS_GRID| Border size                                                         36
 RS_GRID|   Distribution                         Average         Max         Min
 RS_GRID|   Planes                                 132.0         132         132
 RS_GRID|   Distribution                         Average         Max         Min
 RS_GRID|   Planes                                 112.0         112         112

 RS_GRID| Information for grid number                                          3
 RS_GRID|   Bounds   1            -67      67                Points:         135
 RS_GRID|   Bounds   2            -67      67                Points:         135
 RS_GRID|   Bounds   3            -67      67                Points:         135
 RS_GRID| Real space fully replicated
 RS_GRID| Group size                                                           1

 RS_GRID| Information for grid number                                          4
 RS_GRID|   Bounds   1            -40      39                Points:          80
 RS_GRID|   Bounds   2            -40      39                Points:          80
 RS_GRID|   Bounds   3            -40      39                Points:          80
 RS_GRID| Real space fully replicated
 RS_GRID| Group size                                                           1
 
 RI-RPA| using GPW style
 

 Number of electrons:                                                          2
 Number of occupied orbitals:                                                  1
 Number of molecular orbitals:                                                46

 Number of orbital functions:                                                 46
 Number of independent orbital functions:                                     46

 Extrapolation method: initial_guess

 Atomic guess: The first density matrix is obtained in terms of atomic orbitals
               and electronic configurations assigned to each atomic kind

 Guess for atomic kind: H

 Electronic structure
    Total number of core electrons                                          0.00
    Total number of valence electrons                                       1.00
    Total number of electrons                                               1.00
    Multiplicity                                                   not specified
    S      1.00


 *******************************************************************************
                  Iteration          Convergence                     Energy [au]
 *******************************************************************************
                          1        0.733196E-02                  -0.445117623880
                          2        0.859241E-03                  -0.445212006904
                          3        0.845006E-04                  -0.445214656295
                          4        0.112741E-06                  -0.445214675972

 Energy components [Hartree]           Total Energy ::           -0.445214675972
                                        Band Energy ::           -0.233330933424
                                     Kinetic Energy ::            0.424855784484
                                   Potential Energy ::           -0.870070460456
                                      Virial (-V/T) ::            2.047919534654
                                        Core Energy ::           -0.495467353870
                                          XC Energy ::           -0.231971319510
                                     Coulomb Energy ::            0.282223997408

 Orbital energies  State     L     Occupation   Energy[a.u.]          Energy[eV]

                       1     0          1.000      -0.233331           -6.349258


 Total Electron Density at R=0:                                         0.248077
 Re-scaling the density matrix to get the right number of electrons
                  # Electrons              Trace(P)               Scaling factor
                            2                 2.000                        1.000


 SCF WAVEFUNCTION OPTIMIZATION

  Step     Update method      Time    Convergence         Total energy    Change
  ------------------------------------------------------------------------------
     1 NoMix/Diag. 0.10E+00    5.7     0.50377742        -0.9607401895 -9.61E-01
     2 Broy./Diag. 0.10E+00    4.6     0.00169190        -0.6477846747  3.13E-01
     3 Broy./Diag. 0.10E+00    4.7     0.02571796        -0.9999062637 -3.52E-01
     4 Broy./Diag. 0.10E+00    4.8     0.00071946        -1.0826222371 -8.27E-02
     5 Broy./Diag. 0.10E+00    4.8     0.01115141        -1.1184329747 -3.58E-02
     6 Broy./Diag. 0.10E+00    4.9     0.00081588        -1.1366597005 -1.82E-02
     7 Broy./Diag. 0.10E+00    4.9     0.00480519        -1.1467571166 -1.01E-02
     8 Broy./Diag. 0.10E+00    5.0     0.00449785        -1.1551874791 -8.43E-03
     9 Broy./Diag. 0.10E+00    5.1     0.00155275        -1.1625364017 -7.35E-03
    10 Broy./Diag. 0.10E+00    5.2     0.00483936        -1.1637661250 -1.23E-03
    11 Broy./Diag. 0.10E+00    5.2     0.00096417        -1.1624555721  1.31E-03
    12 Broy./Diag. 0.10E+00    5.2     0.00341718        -1.1605908453  1.86E-03
    13 Broy./Diag. 0.10E+00    5.2     0.00205000        -1.1639274179 -3.34E-03
    14 Broy./Diag. 0.10E+00    5.2     0.00032178        -1.1663786620 -2.45E-03
    15 Broy./Diag. 0.10E+00    5.2     0.00110335        -1.1655812936  7.97E-04
    16 Broy./Diag. 0.10E+00    5.2     0.00013563        -1.1662010175 -6.20E-04
    17 Broy./Diag. 0.10E+00    5.2     0.00012833        -1.1661614012  3.96E-05
    18 Broy./Diag. 0.10E+00    5.3     0.00030589        -1.1657273546  4.34E-04
    19 Broy./Diag. 0.10E+00    5.2     0.00016852        -1.1660269668 -3.00E-04
    20 Broy./Diag. 0.10E+00    5.2     0.00008980        -1.1660257513  1.22E-06
    21 Broy./Diag. 0.10E+00    5.2     0.00013096        -1.1660500873 -2.43E-05
    22 Broy./Diag. 0.10E+00    5.2     0.00003041        -1.1662633299 -2.13E-04
    23 Broy./Diag. 0.10E+00    5.2     0.00001924        -1.1663623850 -9.91E-05
    24 Broy./Diag. 0.10E+00    5.3     0.00007373        -1.1662387368  1.24E-04
    25 Broy./Diag. 0.10E+00    5.2     0.00001593        -1.1662119582  2.68E-05
    26 Broy./Diag. 0.10E+00    5.2     0.00003740        -1.1661187754  9.32E-05
    27 Broy./Diag. 0.10E+00    5.3     0.00004369        -1.1661166742  2.10E-06
    28 Broy./Diag. 0.10E+00    5.2     0.00001404        -1.1661273155 -1.06E-05
    29 Broy./Diag. 0.10E+00    5.3     0.00003190        -1.1661000658  2.72E-05
    30 Broy./Diag. 0.10E+00    5.3     0.00001184        -1.1661000586  7.22E-09
    31 Broy./Diag. 0.10E+00    5.2     0.00000878        -1.1661180238 -1.80E-05
    32 Broy./Diag. 0.10E+00    5.2     0.00003574        -1.1661186971 -6.73E-07
    33 Broy./Diag. 0.10E+00    5.2     0.00000664        -1.1661137369  4.96E-06
    34 Broy./Diag. 0.10E+00    5.2     0.00000797        -1.1661098151  3.92E-06
    35 Broy./Diag. 0.10E+00    5.2     0.00001371        -1.1661046447  5.17E-06
    36 Broy./Diag. 0.10E+00    5.2     0.00000430        -1.1660979226  6.72E-06
    37 Broy./Diag. 0.10E+00    5.2     0.00000155        -1.1660955746  2.35E-06
    38 Broy./Diag. 0.10E+00    5.2     0.00001229        -1.1660960801 -5.06E-07
    39 Broy./Diag. 0.10E+00    5.2     0.00000032        -1.1660982897 -2.21E-06
    40 Broy./Diag. 0.10E+00    5.2     0.00000819        -1.1660977990  4.91E-07
    41 Broy./Diag. 0.10E+00    5.3     0.00000123        -1.1660998503 -2.05E-06
    42 Broy./Diag. 0.10E+00    5.2     0.00000380        -1.1661005507 -7.00E-07
    43 Broy./Diag. 0.10E+00    5.2     0.00000087        -1.1661011315 -5.81E-07
    44 Broy./Diag. 0.10E+00    5.2     0.00000329        -1.1661012747 -1.43E-07
    45 Broy./Diag. 0.10E+00    5.2     0.00000390        -1.1661007508  5.24E-07
    46 Broy./Diag. 0.10E+00    5.2     0.00000202        -1.1660997301  1.02E-06
    47 Broy./Diag. 0.10E+00    5.3     0.00000083        -1.1660994568  2.73E-07
    48 Broy./Diag. 0.10E+00    5.3     0.00000422        -1.1660999886 -5.32E-07
    49 Broy./Diag. 0.10E+00    5.3     0.00000030        -1.1661004122 -4.24E-07
    50 Broy./Diag. 0.10E+00    5.2     0.00000031        -1.1661003052  1.07E-07
    51 Broy./Diag. 0.10E+00    5.2     0.00000037        -1.1661001900  1.15E-07
    52 Broy./Diag. 0.10E+00    5.3     0.00000037        -1.1661002090 -1.90E-08
    53 Broy./Diag. 0.10E+00    5.2     0.00000268        -1.1661001702  3.88E-08
    54 Broy./Diag. 0.10E+00    5.3     0.00000042        -1.1661000275  1.43E-07
    55 Broy./Diag. 0.10E+00    5.2     0.00000191        -1.1661000512 -2.38E-08
    56 Broy./Diag. 0.10E+00    5.2     0.00000042        -1.1661000487  2.54E-09
    57 Broy./Diag. 0.10E+00    5.2     0.00000058        -1.1660999912  5.75E-08
    58 Broy./Diag. 0.10E+00    5.2     0.00000016        -1.1660999729  1.83E-08
    59 Broy./Diag. 0.10E+00    5.2     0.00000021        -1.1660999964 -2.36E-08
    60 Broy./Diag. 0.10E+00    5.2     0.00000004        -1.1661000152 -1.88E-08
    61 Broy./Diag. 0.10E+00    5.1     0.00000009        -1.1661000307 -1.54E-08
    62 Broy./Diag. 0.10E+00    5.1     0.00000004        -1.1661000297  9.22E-10
    63 Broy./Diag. 0.10E+00    5.1     0.00000005        -1.1661000308 -1.08E-09
    64 Broy./Diag. 0.10E+00    5.2     0.00000012        -1.1661000236  7.26E-09
    65 Broy./Diag. 0.10E+00    5.1     0.00000009        -1.1661000132  1.03E-08
    66 Broy./Diag. 0.10E+00    5.1     0.00000006        -1.1661000101  3.07E-09
    67 Broy./Diag. 0.10E+00    5.1     0.00000003        -1.1661000049  5.25E-09
    68 Broy./Diag. 0.10E+00    5.1     0.00000005        -1.1660999936  1.13E-08
    69 Broy./Diag. 0.10E+00    5.1     0.00000005        -1.1660999878  5.78E-09
    70 Broy./Diag. 0.10E+00    5.2     0.00000004        -1.1660999863  1.43E-09
    71 Broy./Diag. 0.10E+00    5.1     0.00000003        -1.1660999930 -6.62E-09
    72 Broy./Diag. 0.10E+00    5.1     4.2910E-09        -1.1660999945 -1.55E-09
    73 Broy./Diag. 0.10E+00    5.1     4.9118E-09        -1.1660999954 -9.36E-10
    74 Broy./Diag. 0.10E+00    5.2     5.7995E-10        -1.1660999955 -3.84E-11

  *** SCF run converged in    74 steps ***


  Electronic density on regular grids:         -1.9953041777        0.0046958223
  Core density on regular grids:                2.0000000000       -0.0000000000
  Hard and soft densities (Lebedev):          -10.9236525375      -10.9189567149
  Total Rho_soft + Rho1_hard - Rho1_soft       -2.0000000003
  Total charge density (r-space):              -0.0000000003
  Total Rho_soft + Rho0_soft (g-space):        -0.0000000067

  Overlap energy of the core charge distribution:               0.00000051136925
  Self energy of the core charge distribution:                 -2.82094791773878
  Core Hamiltonian energy:                                      0.98047170947294
  Hartree energy:                                               1.08988972550841
  Exchange-correlation energy:                                 -0.68641459632574

  GAPW| Exc from hard and soft atomic rho1:                    -0.00383704474233
  GAPW| local Eh = 1 center integrals:                          0.27473761697416

  Total energy:                                                -1.16609999548210

 !-----------------------------------------------------------------------------!
                     Mulliken Population Analysis

 #  Atom  Element  Kind  Atomic population                           Net charge
       1     H        1          1.000000                             -0.000000
       2     H        1          1.000000                              0.000000
 # Total charge                              2.000000                  0.000000

 !-----------------------------------------------------------------------------!

 !-----------------------------------------------------------------------------!
                           Hirshfeld Charges

  #Atom  Element  Kind  Ref Charge     Population                    Net charge
      1       H      1       1.000          0.930                         0.070
      2       H      1       1.000          0.930                         0.070

  Total Charge                                                            0.140
 !-----------------------------------------------------------------------------!


 RI-RPA section
 --------------

  Used number of processes per group:                                          1
  Maximum allowed memory usage per MPI process:                      1024.00 MiB
  RI_INFO| Cholesky decomposition group size:                                  2
  RI_INFO| Number of groups for auxiliary basis functions                     24

  RI_INFO| RI metric:                                                    COULOMB
  RI_INFO| Number of auxiliary basis functions:                               30
  GENERAL_INFO| Number of basis functions:                                    46
  GENERAL_INFO| Number of occupied orbitals:                                   1
  GENERAL_INFO| Number of virtual orbitals:                                   45
  RI_INFO| Total memory for (ia|K) integrals:                           0.01 MiB
  RI_INFO| Total memory for G0W0-(nm|K) integrals:                      0.48 MiB
  RI_INFO| Total memory for (ij|K) integrals:                           0.00 MiB
  RI_INFO| Total memory for (ab|K) integrals:                           0.46 MiB
  RI_INFO| Group size for frequency integration:                              24
  INTEG_INFO| Clenshaw-Curtius quadrature
  INTEG_INFO| Number of integration points:                                  100
  INTEG_INFO| Number of integration points per RPA group:                    100
  MATRIX_INFO| Number row processes:                                           6
  MATRIX_INFO| Number column processes:                                        4
  MATRIX_INFO| Row block size:                                                 2
  MATRIX_INFO| Column block size:                                              5
  INTEG_INFO| Scaling parameter:                                         0.20000
  INTEG_INFO| Started with Integration point   1 of 100
  INTEG_INFO| Started with Integration point   2 of 100
  INTEG_INFO| Started with Integration point   3 of 100
  INTEG_INFO| Started with Integration point   4 of 100
  INTEG_INFO| Started with Integration point   5 of 100
  INTEG_INFO| Started with Integration point   6 of 100
  INTEG_INFO| Started with Integration point   7 of 100
  INTEG_INFO| Started with Integration point   8 of 100
  INTEG_INFO| Started with Integration point   9 of 100
  INTEG_INFO| Started with Integration point  10 of 100
  INTEG_INFO| Started with Integration point  11 of 100
  INTEG_INFO| Started with Integration point  12 of 100
  INTEG_INFO| Started with Integration point  13 of 100
  INTEG_INFO| Started with Integration point  14 of 100
  INTEG_INFO| Started with Integration point  15 of 100
  INTEG_INFO| Started with Integration point  16 of 100
  INTEG_INFO| Started with Integration point  17 of 100
  INTEG_INFO| Started with Integration point  18 of 100
  INTEG_INFO| Started with Integration point  19 of 100
  INTEG_INFO| Started with Integration point  20 of 100
  INTEG_INFO| Started with Integration point  21 of 100
  INTEG_INFO| Started with Integration point  22 of 100
  INTEG_INFO| Started with Integration point  23 of 100
  INTEG_INFO| Started with Integration point  24 of 100
  INTEG_INFO| Started with Integration point  25 of 100
  INTEG_INFO| Started with Integration point  26 of 100
  INTEG_INFO| Started with Integration point  27 of 100
  INTEG_INFO| Started with Integration point  28 of 100
  INTEG_INFO| Started with Integration point  29 of 100
  INTEG_INFO| Started with Integration point  30 of 100
  INTEG_INFO| Started with Integration point  31 of 100
  INTEG_INFO| Started with Integration point  32 of 100
  INTEG_INFO| Started with Integration point  33 of 100
  INTEG_INFO| Started with Integration point  34 of 100
  INTEG_INFO| Started with Integration point  35 of 100
  INTEG_INFO| Started with Integration point  36 of 100
  INTEG_INFO| Started with Integration point  37 of 100
  INTEG_INFO| Started with Integration point  38 of 100
  INTEG_INFO| Started with Integration point  39 of 100
  INTEG_INFO| Started with Integration point  40 of 100
  INTEG_INFO| Started with Integration point  41 of 100
  INTEG_INFO| Started with Integration point  42 of 100
  INTEG_INFO| Started with Integration point  43 of 100
  INTEG_INFO| Started with Integration point  44 of 100
  INTEG_INFO| Started with Integration point  45 of 100
  INTEG_INFO| Started with Integration point  46 of 100
  INTEG_INFO| Started with Integration point  47 of 100
  INTEG_INFO| Started with Integration point  48 of 100
  INTEG_INFO| Started with Integration point  49 of 100
  INTEG_INFO| Started with Integration point  50 of 100
  INTEG_INFO| Started with Integration point  51 of 100
  INTEG_INFO| Started with Integration point  52 of 100
  INTEG_INFO| Started with Integration point  53 of 100
  INTEG_INFO| Started with Integration point  54 of 100
  INTEG_INFO| Started with Integration point  55 of 100
  INTEG_INFO| Started with Integration point  56 of 100
  INTEG_INFO| Started with Integration point  57 of 100
  INTEG_INFO| Started with Integration point  58 of 100
  INTEG_INFO| Started with Integration point  59 of 100
  INTEG_INFO| Started with Integration point  60 of 100
  INTEG_INFO| Started with Integration point  61 of 100
  INTEG_INFO| Started with Integration point  62 of 100
  INTEG_INFO| Started with Integration point  63 of 100
  INTEG_INFO| Started with Integration point  64 of 100
  INTEG_INFO| Started with Integration point  65 of 100
  INTEG_INFO| Started with Integration point  66 of 100
  INTEG_INFO| Started with Integration point  67 of 100
  INTEG_INFO| Started with Integration point  68 of 100
  INTEG_INFO| Started with Integration point  69 of 100
  INTEG_INFO| Started with Integration point  70 of 100
  INTEG_INFO| Started with Integration point  71 of 100
  INTEG_INFO| Started with Integration point  72 of 100
  INTEG_INFO| Started with Integration point  73 of 100
  INTEG_INFO| Started with Integration point  74 of 100
  INTEG_INFO| Started with Integration point  75 of 100
  INTEG_INFO| Started with Integration point  76 of 100
  INTEG_INFO| Started with Integration point  77 of 100
  INTEG_INFO| Started with Integration point  78 of 100
  INTEG_INFO| Started with Integration point  79 of 100
  INTEG_INFO| Started with Integration point  80 of 100
  INTEG_INFO| Started with Integration point  81 of 100
  INTEG_INFO| Started with Integration point  82 of 100
  INTEG_INFO| Started with Integration point  83 of 100
  INTEG_INFO| Started with Integration point  84 of 100
  INTEG_INFO| Started with Integration point  85 of 100
  INTEG_INFO| Started with Integration point  86 of 100
  INTEG_INFO| Started with Integration point  87 of 100
  INTEG_INFO| Started with Integration point  88 of 100
  INTEG_INFO| Started with Integration point  89 of 100
  INTEG_INFO| Started with Integration point  90 of 100
  INTEG_INFO| Started with Integration point  91 of 100
  INTEG_INFO| Started with Integration point  92 of 100
  INTEG_INFO| Started with Integration point  93 of 100
  INTEG_INFO| Started with Integration point  94 of 100
  INTEG_INFO| Started with Integration point  95 of 100
  INTEG_INFO| Started with Integration point  96 of 100
  INTEG_INFO| Started with Integration point  97 of 100
  INTEG_INFO| Started with Integration point  98 of 100
  INTEG_INFO| Started with Integration point  99 of 100
  INTEG_INFO| Started with Integration point 100 of 100
  PERFORMANCE| Average DGEMM flop rate (Gflops / MPI rank):                 0.00
  
  
  ******************************************************************************
  **                                                                          **
  **                        GW QUASIPARTICLE ENERGIES                         **
  **                                                                          **
  ******************************************************************************
   
   
  The GW quasiparticle energies are calculated according to: 
   
                      E_GW = E_SCF + Sigc(E_GW) + Sigx - vxc 
   
  Upper equation is solved self-consistently for E_GW, see Eq. (12) in J. Phys.
  Chem. Lett. 9, 306 (2018), doi: 10.1021/acs.jpclett.7b02740
  
  
  ------------
  G0W0 results
  ------------
   
  Molecular orbital   E_SCF (eV)       Sigc (eV)   Sigx-vxc (eV)       E_GW (eV)
     1 ( occ )          -10.3753          0.5135         -5.8024        -15.6642
     2 ( vir )            0.3212         -0.2764          2.1723          2.2170
     3 ( vir )            1.0082         -0.1254          1.4489          2.3317
     4 ( vir )            1.0082         -0.1254          1.4489          2.3317
     5 ( vir )            1.1526         -0.1921          1.6154          2.5759
     6 ( vir )            2.9854         -0.0860          0.9955          3.8949
     7 ( vir )            2.9854         -0.0860          0.9955          3.8949
     8 ( vir )            3.2849         -0.4226          2.4414          5.3037
     9 ( vir )            3.2892         -0.1235          1.2552          4.4209
    10 ( vir )            4.5616         -0.1038          1.4893          5.9471
    11 ( vir )            4.5616         -0.1038          1.4893          5.9471
    12 ( vir )           11.8983         -0.6233          3.3642         14.6392
    13 ( vir )           13.0706         -0.5216          3.5555         16.1045
    14 ( vir )           14.0223         -0.6291          4.0279         17.4211
    15 ( vir )           14.0223         -0.6255          4.0279         17.4247
    16 ( vir )           14.7321         -0.8114          3.8462         17.7670
    17 ( vir )           15.2548         -0.1234          2.4491         17.5806
    18 ( vir )           15.2549         -0.1270          2.4491         17.5769
    19 ( vir )           19.9948         -1.2347          4.7882         23.5483
    20 ( vir )           19.9948         -1.2318          4.7882         23.5512
    21 ( vir )           23.7556         -1.1069          5.0955         27.7441
    22 ( vir )           23.7556         -1.4056          5.0955         27.4454
    23 ( vir )           28.2719         -3.1394          6.2859         31.4185
    24 ( vir )           47.1653         -3.1068          7.6686         51.7272
    25 ( vir )           57.0631          1.5384          9.4175         68.0189
    26 ( vir )           64.4983         -6.3491          8.8467         66.9958
    27 ( vir )           64.4983         -4.1279          8.8467         69.2170
    28 ( vir )           82.2808         -4.2489          9.4597         87.4916
    29 ( vir )           82.2808         -4.0916          9.4597         87.6490
    30 ( vir )           85.0107         -2.4303          9.9197         92.5001
    31 ( vir )           85.0107          3.9537          9.9197         98.8841
    32 ( vir )           88.4232          5.5973          9.2805        103.3009
    33 ( vir )           97.9570        -10.1967          8.9842         96.7444
    34 ( vir )           97.9570        -10.4240          8.9842         96.5172
    35 ( vir )          123.6681          1.5636         10.5516        135.7833
    36 ( vir )          124.8335          3.1350          8.6444        136.6129
    37 ( vir )          124.8335          3.0987          8.6444        136.5766
    38 ( vir )          159.9951          1.1144          9.3507        170.4602
    39 ( vir )          159.9951          1.9622          9.3507        171.3080
    40 ( vir )          173.2943          2.2101         13.3627        188.8671
    41 ( vir )          288.3468          0.1494          6.5885        295.0846
    42 ( vir )          806.8332          0.0429          9.6819        816.5580
    43 ( vir )          806.8332          0.0428          9.6819        816.5580
    44 ( vir )          997.6213          0.3048         22.2384       1020.1644
    45 ( vir )         1068.3415          0.3262         19.8621       1088.5298
    46 ( vir )         1387.6858          0.1437         16.2258       1404.0553
   
  G0W0 HOMO-LUMO gap (eV)                                                17.8813
  
  ------------------------------------------------------------------------------
  
 *******************************************************************************
 **                                                                           **
 **           Bethe Salpeter equation (BSE) for excitation energies           **
 **               solved without Tamm-Dancoff approximation (TDA)             **
 **                                                                           **
 *******************************************************************************
  
 BSE| No cutoff given for occupied orbitals
 BSE| No cutoff given for empty orbitals
 BSE| First occupied index                                                     1
 BSE| Last empty index (not MO index!)                                        45
 BSE| Energy of first occupied index [eV]                                -15.664
 BSE| Energy of last empty index [eV]                                   1404.055
 BSE| Energy difference of first occupied index to HOMO [eV]              -0.000
 BSE| Energy difference of last empty index to LUMO [eV]                1401.838
 BSE| Number of GW-corrected occupied MOs                                      1
 BSE| Number of GW-corrected empty MOs                                        45
 BSE|
 BSE| No truncation of BSE matrices applied
 BSE|
 BSE| Total peak memory estimate from BSE [GB]                         1.509E-04
 BSE| Peak memory estimate per MPI rank from BSE [GB]                      0.000
 BSE|
 BSE| Diagonalizing aux. matrix with size of A. This will take around 0.E+00 s.
 BSE| Diagonalizing C. This will take around 0.E+00 s.
 BSE|
 BSE|
 BSE| **************************************************************************
 BSE| *      Full ("ABBA") Bethe Salpeter equation (BSE) (i.e. without TDA)    *
 BSE| **************************************************************************
 BSE|
 BSE| The excitations are calculated by diagonalizing the BSE without the TDA:
 BSE|
 BSE|                |A B| |X^n|       |1  0| |X^n|
 BSE|                |B A| |Y^n| = ^n |0 -1| |Y^n|
 BSE|
 BSE| i.e. in index notation:
 BSE|
 BSE|   sum_jb ( A_ia,jb   X_jb^n + B_ia,jb   Y_jb^n ) = ^n X_ia^n
 BSE| - sum_jb ( B_ia,jb   X_jb^n + A_ia,jb   Y_jb^n ) = ^n Y_ia^n
 BSE|
 BSE|
 BSE| i,j:       occupied molecular orbitals, i.e. state in          [   1,   1]
 BSE| a,b:       unoccupied molecular orbitals, i.e. state in        [   2,  46]
 BSE| n:         Excitation index
 BSE|
 BSE| A_ia,jb = (_a-_i) _ij _ab +  * v_ia,jb - W_ij,ab
 BSE| B_ia,jb =  * v_ia,jb - W_ib,aj
 BSE|
 BSE| prelim Ref.: Eqs. (24-27),(30),(35)
 BSE| in PRB 92,045209 (2015); http://dx.doi.org/10.1103/PhysRevB.92.045209 .
 BSE|
 BSE| The BSE is solved for ^n and X_ia^n as a hermitian problem, e.g. Eq.(42)
 BSE| in PRB 92,045209 (2015); http://dx.doi.org/10.1103/PhysRevB.92.045209 .
 BSE|
 BSE| _...:                 GW quasiparticle energy
 BSE| _...:                 Kronecker delta
 BSE| :                     spin-dependent factor
 BSE| v_...:                 Electron-hole exchange interaction
 BSE| W_... = 1/ v_...:     Direct interaction screened by 
 BSE|                        dielectric function (=0)
 BSE|
 BSE|
 BSE| The spin-dependent factor is for the requested Singlet is  = 2.0
 BSE|
 BSE| Excitation energies from solving the BSE without the TDA:
 BSE|
[...]
 -------------------------------------------------------------------------------

 -------------------------------------------------------------------------------
 -                                                                             -
 -                                GRID STATISTICS                              -
 -                                                                             -
 -------------------------------------------------------------------------------
 LP    KERNEL             BACKEND                              COUNT     PERCENT
 4     collocate ortho    CPU                                   5625      30.33%
 4     integrate ortho    CPU                                   5625      30.33%
 2     collocate general  CPU                                   3600      19.41%
 2     integrate general  CPU                                   3600      19.41%
 0     collocate general  CPU                                     48       0.26%
 0     integrate general  CPU                                     48       0.26%
 -------------------------------------------------------------------------------

 MEMORY| Estimated peak process memory [MiB]                                2529

 -------------------------------------------------------------------------------
 ----                             MULTIGRID INFO                            ----
 -------------------------------------------------------------------------------
 count for grid        1:         165414          cutoff [a.u.]          250.00
 count for grid        2:          55509          cutoff [a.u.]           83.33
 count for grid        3:          32172          cutoff [a.u.]           27.78
 count for grid        4:          32844          cutoff [a.u.]            9.26
 total gridlevel count  :         285939

 -------------------------------------------------------------------------------
 -                                                                             -
 -                         MESSAGE PASSING PERFORMANCE                         -
 -                                                                             -
 -------------------------------------------------------------------------------

 ROUTINE             CALLS      AVE VOLUME [Bytes]
 MP_Group              219
 MP_Bcast             3123                  54710.
 MP_Allreduce         5087                   2686.
 MP_Sync               360
 MP_Alltoall          2070              109833900.
 MP_SendRecv          3499                 532247.
 MP_ISendRecv         3450                 539800.
 MP_Wait             19772
 MP_comm_split          53
 MP_ISend            16259                1537663.
 MP_IRecv            16230                1540411.
 -------------------------------------------------------------------------------


 -------------------------------------------------------------------------------
 -                                                                             -
 -                           R E F E R E N C E S                               -
 -                                                                             -
 -------------------------------------------------------------------------------
 
 CP2K version 2025.1 (Development Version), the CP2K developers group (2025).
 CP2K is freely available from https://www.cp2k.org/ .
 
 T. D. Kuehne, M. Iannuzzi, M. Del Ben, V. V. Rybkin, P. Seewald, F. Stein, T. 
 Laino, R. Z. Khaliullin, O. Schuett, F. Schiffmann, D. Golze, J. Wilhelm, S. 
 Chulkov, M. H. Bani-Hashemian, V. Weber, U. Borstnik, M. Taillefumier, A. S. 
 Jakobovits, A. Lazzaro, H. Pabst, T. Mueller, R. Schade, M. Guidon, S. 
 Andermatt, N. Holmberg, G. K. Schenter, A. Hehn, A. Bussy, F. Belleflamme, G. 
 Tabacchi, A. Gloess, M. Lass, I. Bethune, C. J. Mundy, C. Plessl, M. Watkins, 
 J. VandeVondele, M. Krack, J. Hutter.
 J. Chem. Phys. 152, 194103 (2020).
 CP2K: An electronic structure and molecular dynamics software package - 
 Quickstep: Efficient and accurate electronic structure calculations.
 https://doi.org/10.1063/5.0007045

 J. Wilhelm, D. Golze, L. Talirz, J. Hutter, C. A. Pignedoli.
 J. Phys. Chem. Lett. 9, 306-312 (2018).
 Toward GW calculations on thousands of atoms.
 https://doi.org/10.1021/acs.jpclett.7b02740

 J. Wilhelm, J. Hutter.
 Phys. Rev. B 95, 235123 (2017).
 Periodic GW calculations in the Gaussian and plane-waves scheme.
 https://doi.org/10.1103/PhysRevB.95.235123

 O. Schuett, P. Messmer, J. Hutter, J. VandeVondele.
 Electronic Structure Calculations on Graphics Processing Units, 173-190 (2016).
 GPU-Accelerated Sparse Matrix-Matrix Multiplication for Linear Scaling Density 
 Functional Theory.
 https://doi.org/10.1002/9781118670712.ch8

 J. Wilhelm, M. Del Ben, J. Hutter.
 J. Chem. Theory Comput. 12, 3623-3635 (2016).
 GW in the Gaussian and plane waves scheme with application to linear acenes.
 https://doi.org/10.1021/acs.jctc.6b00380

 M. Del Ben, O. Schuett, T. Wentz, P. Messmer, J. Hutter, J. VandeVondele.
 Comput. Phys. Commun. 187, 120-129 (2015).
 Enabling simulation at the fifth rung of DFT: Large scale RPA calculations with 
 excellent time to solution.
 https://doi.org/10.1016/j.cpc.2014.10.021

 J. Hutter, M. Iannuzzi, F. Schiffmann, J. VandeVondele.
 WIREs Comput Mol Sci. 4, 15-25 (2014).
 CP2K: atomistic simulations of condensed matter systems.
 https://doi.org/10.1002/wcms.1159

 U. Borstnik, J. VandeVondele, V. Weber, J. Hutter.
 Parallel Comput. 40, 47-58 (2014).
 Sparse matrix multiplication: The distributed block-compressed sparse row 
 library.
 https://doi.org/10.1016/j.parco.2014.03.012

 M. Del Ben, J. Hutter, J. VandeVondele.
 J. Chem. Theory Comput. 9, 2654-2671 (2013).
 Electron Correlation in the Condensed Phase from a Resolution of Identity 
 Approach Based on the Gaussian and Plane Waves Scheme.
 https://doi.org/10.1021/ct4002202

 M. Del Ben, J. Hutter, J. VandeVondele.
 J. Chem. Theory Comput. 8, 4177-4188 (2012).
 Second-Order Moller-Plesset Perturbation Theory in the Condensed Phase: An 
 Efficient and Massively Parallel Gaussian and Plane Waves Approach.
 https://doi.org/10.1021/ct300531w

 L. Genovese, T. Deutsch, S. Goedecker.
 J. Chem. Phys. 127, 054704 (2007).
 Efficient and accurate three-dimensional Poisson solver for surface problems.
 https://doi.org/10.1063/1.2754685

 J. VandeVondele, J. Hutter.
 J. Chem. Phys. 127, 114105 (2007).
 Gaussian basis sets for accurate calculations on molecular systems in gas and 
 condensed phases.
 https://doi.org/10.1063/1.2770708

 L. Genovese, T. Deutsch, A. Neelov, S. Goedecker, G. Beylkin.
 J. Chem. Phys. 125, 074105 (2006).
 Efficient solution of Poisson's equation with free boundary conditions.
 https://doi.org/10.1063/1.2335442

 M. Frigo, S. G. Johnson.
 Proc. IEEE 93, 216-231 (2005).
 The design and implementation of FFTW3.
 https://doi.org/10.1109/JPROC.2004.840301

 M. Krack, M. Parrinello.
 Phys. Chem. Chem. Phys. 2, 2105-2112 (2000).
 All-electron ab-initio molecular dynamics.
 https://doi.org/10.1039/b001167n

 G. Lippert, J. Hutter, M. Parrinello.
 Theor. Chem. Acc. 103, 124-140 (1999).
 The Gaussian and augmented-plane-wave density functional method for ab initio 
 molecular dynamics simulations.
 https://doi.org/10.1007/s002140050523

 J. P. Perdew, K. Burke, M. Ernzerhof.
 Phys. Rev. Lett. 77, 3865-3868 (1996).
 Generalized gradient approximation made simple.
 https://doi.org/10.1103/PhysRevLett.77.3865


 -------------------------------------------------------------------------------
 -                                                                             -
 -                                T I M I N G                                  -
 -                                                                             -
 -------------------------------------------------------------------------------
 SUBROUTINE                       CALLS  ASD         SELF TIME        TOTAL TIME
                                MAXIMUM       AVERAGE  MAXIMUM  AVERAGE  MAXIMUM
 CP2K                                 1  1.0    0.022    0.027  388.140  388.141
 qs_energies                          1  2.0    0.001    0.001  387.182  387.182
 scf_env_do_scf                       1  3.0    0.000    0.000  383.229  383.230
 scf_env_do_scf_inner_loop           74  4.0    0.002    0.005  383.229  383.229
 qs_ks_build_kohn_sham_matrix        75  7.0    0.011    0.013  287.543  287.550
 qs_ks_update_qs_env                 74  5.0    0.001    0.001  285.227  285.232
 rebuild_ks_matrix                   74  6.0    0.000    0.000  285.223  285.229
 fft_wrap_pw1pw2                   1566  9.9    0.035    0.047  176.689  178.252
 fft_wrap_pw1pw2_250               1116 11.1    7.923    8.862  171.520  173.318
 fft3d_ps                          1566 11.9   76.472   79.407  138.723  140.214
 pw_poisson_solve                    75  8.0    3.281    3.384  120.775  120.860
 qs_vxc_create                       75  8.0    0.001    0.001  104.680  104.681
 xc_vxc_pw_create                    74  9.0    1.917    1.983  104.679  104.679
 ps_wavelet_solve                    75  9.0   67.772   72.321   80.006   80.263
 xc_pw_derive                       444 11.0    0.005    0.006   77.398   78.864
 mp_alltoall_d54                     75 10.0    7.323   62.514    7.323   62.514
 gspace_mixing                       73  5.0    1.425    1.437   53.945   53.945
 xc_rho_set_and_dset_create          74 10.0    1.450    1.678   50.751   52.580
 xc_pw_divergence                    74 10.0    0.003    0.004   51.150   52.391
 mp_alltoall_z22v                  1566 13.9   37.799   49.605   37.799   49.605
 qs_rho_update_rho_low               75  5.0    0.001    0.001   44.009   44.009
 calculate_rho_elec                  75  6.0    1.465    1.477   43.949   43.949
 broyden_mixing                      73  6.0   40.686   41.531   41.358   41.718
 x_to_yz                            819 13.1   16.583   16.846   35.100   36.100
 yz_to_x                            747 12.8    7.849    9.496   27.130   33.984
 density_rs2pw                       75  7.0    0.005    0.006   32.743   33.181
 sum_up_and_integrate                75  8.0    0.001    0.001   23.291   23.298
 integrate_v_rspace                  75  9.0    0.001    0.002   22.844   22.857
 potential_pw2rs                     75 10.0    0.067    0.080   22.602   22.616
 prepare_gapw_den                    75  8.0    0.001    0.001   18.559   18.830
 put_rho0_on_grid                    75  9.0    1.468    1.484   18.097   18.368
 pw_scatter_p                       819 12.1   12.973   13.203   12.973   13.203
 transfer_pw2rs                     376 10.6    0.006    0.007   12.874   12.917
 pw_gather_p                        747 11.8   10.671   11.666   10.671   11.666
 transfer_rs2pw                     376  8.4    0.009    0.010   10.872   10.971
 xc_functional_eval                 222 10.9    0.001    0.001    8.517   10.074
 pbe_lda_eval                       222 11.9    8.516   10.073    8.516   10.073
 mp_waitany                       12656 11.5    8.704    9.725    8.704    9.725
 transfer_pw2rs_250                 151 11.0    3.462    3.733    9.438    9.650
 grid_collocate_task_list            75  7.0    9.294    9.386    9.294    9.386
 pw_derive                          669 11.3    8.910    9.342    8.910    9.342
 transfer_rs2pw_250                 151 10.0    3.684    3.772    7.953    8.113
 mp_sum_d                          1455  5.9    3.249    5.901    3.249    5.901
 integrate_vhg0_rspace               75  8.0    0.019    0.023    5.888    5.894
 mp_alltoall_d45                     76 10.0    4.095    5.553    4.095    5.553
 pw_copy                           1120 10.6    4.753    5.081    4.753    5.081
 cp2k_distribution_to_z_slices       75  9.0    2.948    3.057    4.648    5.067
 fft_wrap_pw1pw2_90                 150 10.5    0.220    0.282    4.261    5.031
 pw_poisson_set                      76  8.9    0.003    0.003    4.455    4.540
 pw_copy_to_array                   747 11.8    3.939    4.318    3.939    4.318
 mp_alltoall_d11v                  3549  9.5    2.991    3.735    2.991    3.735
 pw_axpy                            745  9.3    3.295    3.557    3.295    3.557
 rs_grid_zero                       377 11.2    2.951    2.999    2.951    2.999
 mp2_main                             1  3.0    0.000    0.001    2.834    2.835
 pw_integral_ab_c1d_c1d_gs           75  9.0    2.229    2.475    2.653    2.791
 pw_copy_from_array                 819 12.1    2.159    2.543    2.159    2.543
 compute_vec_Sigma_x_minus_vxc_       1  4.0    0.000    0.000    2.327    2.327
 pw_poisson_rebuild                  75  9.0    0.000    0.000    1.835    1.870
 ps_wavelet_create                    1 10.0    0.000    0.000    1.835    1.870
 RS_z_slice_distribution              1 11.0    1.671    1.742    1.835    1.870
 transfer_pw2rs_90                   75 12.0    0.577    0.660    1.704    1.862
 mp_isend_dv                      11645 11.4    0.987    1.647    0.987    1.647
 pw_zero                            446 10.3    1.522    1.587    1.522    1.587
 transfer_rs2pw_90                   75  9.0    0.456    0.506    1.386    1.547
 transfer_pw2rs_30                   75 12.0    0.833    0.875    1.334    1.388
 transfer_rs2pw_30                   75  9.0    0.640    0.658    1.219    1.248
 mp_waitall_1                      7522 11.7    0.779    1.129    0.779    1.129
 Vh_1c_gg_integrals                  75  8.0    0.010    0.085    0.375    1.054
 scale_and_distribute               150 10.0    0.980    1.022    0.980    1.022
 init_scf_run                         1  3.0    0.000    0.000    0.957    0.958
 scf_env_initial_rho_setup            1  4.0    0.000    0.000    0.957    0.958
 mp_max_i                           550  3.0    0.501    0.919    0.501    0.919
 mp_sum_dm                          529  7.6    0.605    0.860    0.605    0.860
 qs_init_subsys                       1  2.0    0.007    0.010    0.854    0.855
 qs_env_setup                         1  3.0    0.000    0.000    0.844    0.847
 qs_env_rebuild_pw_env                2  3.5    0.000    0.000    0.843    0.846
 pw_env_rebuild                       1  5.0    0.001    0.001    0.842    0.845
 pw_grid_setup                        4  6.0    0.000    0.000    0.834    0.837
 pw_grid_setup_internal               4  7.0    0.019    0.024    0.834    0.837
 mp_sendrecv_dv                    3450 10.0    0.764    0.814    0.764    0.814
 calculate_vxc_atom                  75  8.0    0.017    0.110    0.766    0.766
 fft_wrap_pw1pw2_30                 150 10.5    0.036    0.043    0.712    0.753
 mp_isend_dm3                      1808 11.5    0.397    0.753    0.397    0.753
 qs_scf_new_mos_kp                   74  5.0    0.000    0.000    0.678    0.681
 do_general_diag_kp                  74  6.0    0.004    0.004    0.678    0.681
 pw_grid_sort                         4  8.0    0.470    0.474    0.667    0.672
 mp_irecv_dm3                      1808 11.5    0.420    0.672    0.420    0.672
 mp_sum_dv                         1624 11.9    0.492    0.666    0.492    0.666
 gaVxcgb_GC                          74  9.0    0.050    0.599    0.050    0.599
 pw_scale                           297  9.5    0.452    0.524    0.452    0.524
 mp2_gpw_main                         1  4.0    0.000    0.000    0.500    0.501
 calculate_rho_atom                  75  9.0    0.109    0.450    0.109    0.450
 rpa_ri_compute_en                    1  5.0    0.000    0.000    0.433    0.433
 rpa_num_int                          1  6.0    0.001    0.001    0.430    0.431
 transfer_pw2rs_10                   75 12.0    0.181    0.193    0.392    0.423
 mp_isendrecv_dv                   3450 13.0    0.185    0.353    0.185    0.353
 cp_cfm_geeig                        74  7.0    0.001    0.001    0.324    0.325
 transfer_rs2pw_10                   75  9.0    0.120    0.127    0.305    0.315
 compute_GW_self_energy             100  7.0    0.001    0.001    0.283    0.309
 mixing_init                          1  5.0    0.287    0.293    0.293    0.294
 compute_GW_self_energy_deep        100  8.0    0.214    0.239    0.255    0.281
 cp_cfm_heevd                        74  8.0    0.000    0.000    0.273    0.274
 cp_cfm_heevd_base                   74  9.0    0.273    0.274    0.273    0.274
 xc_pw_smooth                        74 10.0    0.000    0.000    0.205    0.262
 rs_gather_matrices                  75 10.0    0.001    0.003    0.172    0.240
 grid_integrate_task_list            75 10.0    0.068    0.221    0.068    0.221
 sort_shells                          4  9.0    0.196    0.199    0.196    0.199
 copy_dbcsr_to_fm                   317  7.0    0.003    0.004    0.187    0.188
 fft_wrap_pw1pw2_10                 150 10.5    0.008    0.009    0.160    0.178
 dbcsr_complete_redistribute        469  8.4    0.016    0.020    0.154    0.155
 scf_post_calculation_gpw             1  3.0    0.000    0.000    0.150    0.150
 write_available_results              1  4.0    0.000    0.000    0.150    0.150
 write_mo_free_results                1  5.0    0.026    0.027    0.150    0.150
 dbcsr_desymmetrize_deep            614  7.5    0.009    0.011    0.116    0.120
 mp_irecv_dv                      11667 11.4    0.073    0.109    0.073    0.109
 pw_grid_assign                       4  8.0    0.103    0.105    0.105    0.108
 parallel_gemm_fm                   513  8.6    0.001    0.001    0.090    0.091
 parallel_gemm_fm_gemm              513  9.6    0.001    0.001    0.089    0.091
 cp_fm_gemm                         513 10.6    0.089    0.090    0.089    0.090
 rpa_num_int_RPA_matrix_operati     100  7.0    0.001    0.002    0.088    0.088
 kpoint_density_transform            74  7.0    0.002    0.002    0.064    0.067
 calc_mat_Q                         100  8.0    0.000    0.000    0.065    0.066
 mp2_ri_gpw_compute_in                1  5.0    0.000    0.000    0.066    0.066
 contract_S_to_Q                    100  9.0    0.000    0.000    0.064    0.065
 hirshfeld_integration                1  6.0    0.000    0.000    0.062    0.064
 mp2_ri_gpw_compute_in_loop           1  6.0    0.000    0.000    0.063    0.063
 calculate_hirshfeld_normalizat       1  6.0    0.000    0.000    0.061    0.062
 calculate_rho_atom_coeff            75  6.0    0.012    0.025    0.059    0.060
 contract_B_L                         4  7.0    0.001    0.001    0.056    0.058
 offload_free_buffer                 83  8.4    0.047    0.053    0.047    0.053
 mp_sync                            360  8.2    0.035    0.052    0.035    0.052
 mp_alltoall_i22                   1083  8.9    0.046    0.051    0.046    0.051
 cp_fm_to_fm_submat_general         112 10.1    0.048    0.050    0.048    0.050
 copy_fm_to_dbcsr                   152  8.1    0.001    0.001    0.046    0.048
 mp_alltoall_i11v                  2021  9.1    0.048    0.048    0.048    0.048
 vxc_of_r_new                       148  9.0    0.001    0.007    0.004    0.048
 create_qs_kind_set                   1  2.0    0.000    0.000    0.044    0.046
 read_qs_kind                         1  3.0    0.012    0.019    0.044    0.046
 dbt_total                            8  8.0    0.000    0.000    0.039    0.039
 -------------------------------------------------------------------------------

 The number of warnings for this run is : 1
 
 -------------------------------------------------------------------------------
  **** **** ******  **  PROGRAM ENDED AT                 2025-02-26 22:04:48.636
 ***** ** ***  *** **   PROGRAM RAN ON                              i02r08c01s03
 **    ****   ******    PROGRAM RAN BY                                   di38fab
 ***** **    ** ** **   PROGRAM PROCESS ID                               3596958
  **** **  *******  **  PROGRAM STOPPED IN /hppfs/scratch/04/di38fab/05_MOL/W4-1
                                           1/h2/TZVP
