 DBCSR| CPU Multiplication driver                                           BLAS (U)
 DBCSR| Multrec recursion limit                                              512 (U)
 DBCSR| Multiplication stack size                                           1000 (D)
 DBCSR| Maximum elements for images                                    UNLIMITED (U)
 DBCSR| Multiplicative factor virtual images                                   1 (U)
 DBCSR| Use multiplication densification                                       T (D)
 DBCSR| Multiplication size stacks                                             3 (U)
 DBCSR| Use memory pool for CPU allocation                                     F (U)
 DBCSR| Number of 3D layers                                               SINGLE (U)
 DBCSR| Use MPI memory allocation                                              F (U)
 DBCSR| Use RMA algorithm                                                      F (U)
 DBCSR| Use Communication thread                                               T (U)
 DBCSR| Communication thread load                                             75 (D)
 DBCSR| MPI: My process id                                                     0
 DBCSR| MPI: Number of processes                                              24
 DBCSR| OMP: Current number of threads                                         4
 DBCSR| OMP: Max number of threads                                             4
 DBCSR| Split modifier for TAS multiplication algorithm                  1.0E+00 (U)


  **** **** ******  **  PROGRAM STARTED AT               2025-03-15 02:22:59.807
 ***** ** ***  *** **   PROGRAM STARTED ON                          i01r03c06s06
 **    ****   ******    PROGRAM STARTED BY                               di38fab
 ***** **    ** ** **   PROGRAM PROCESS ID                               3719394
  **** **  *******  **  PROGRAM STARTED IN /hppfs/scratch/04/di38fab/05_MOL/W4-1
                                           1+ALK/b2/TZVP/GW+BSE/1e-3

 CP2K| version string:                 CP2K version 2025.1 (Development Version)
 CP2K| source code revision number:                                  git:d2e611a
 CP2K| cp2kflags: omp libint fftw3 libxc parallel scalapack max_contr=4         
 CP2K| is freely available from                            https://www.cp2k.org/
 CP2K| Program compiled at                       Thu 06 Mar 2025 05:09:20 PM CET
 CP2K| Program compiled on                                               login02
 CP2K| Program compiled for                                        Supermuc-foss
 CP2K| Data directory path                  /hppfs/work/pn36zo/di38fab/cp2k/data
 CP2K| Input file name                                                    GW.inp

 GLOBAL| Force Environment number                                              1
 GLOBAL| Basis set file name            /hppfs/scratch/04/di38fab/04_TMD/BASIS_A
 GLOBAL| Potential file name            /hppfs/work/pn36zo/di38fab/cp2k/data/ALL
 GLOBAL| MM Potential file name                                     MM_POTENTIAL
 GLOBAL| Coordinate file name                                      __STD_INPUT__
 GLOBAL| Method name                                                        CP2K
 GLOBAL| Project name                                                       MoS2
 GLOBAL| Run type                                                         ENERGY
 GLOBAL| FFT library                                                       FFTW3
 GLOBAL| Diagonalization library                                       ScaLAPACK
 GLOBAL| DGEMM library                                                      BLAS
 GLOBAL| Orthonormality check for eigenvectors                          DISABLED
 GLOBAL| Matrix multiplication library                                 ScaLAPACK
 GLOBAL| All-to-all communication in single precision                          F
 GLOBAL| FFTs using library dependent lengths                                  F
 GLOBAL| Grid backend                                                       AUTO
 GLOBAL| Global print level                                               MEDIUM
 GLOBAL| MPI I/O enabled                                                       T
 GLOBAL| Total number of message passing processes                            24
 GLOBAL| Number of threads for this process                                    4
 GLOBAL| This output is from process                                           0
 GLOBAL| OpenMP stack size per thread (OMP_STACKSIZE)                    default
 GLOBAL| CPU model name             Intel(R) Xeon(R) Platinum 8174 CPU @ 3.10GHz

 MEMORY| system memory details [Kb]
 MEMORY|                        rank 0           min           max       average
 MEMORY| MemTotal             98436664      98436664      98436664      98436664
 MEMORY| MemFree              83941532      83941532      84147708      84044620
 MEMORY| Buffers                     0             0             0             0
 MEMORY| Cached                2397164       2393416       2397164       2395290
 MEMORY| Slab                  1233320       1164080       1233320       1198700
 MEMORY| SReclaimable           264576        257668        264576        261122
 MEMORY| MemLikelyFree        86603272      86603272      86798792      86701032


 *** Fundamental physical constants (SI units) ***

 *** Literature: B. J. Mohr and B. N. Taylor,
 ***             CODATA recommended values of the fundamental physical
 ***             constants: 2006, Web Version 5.1
 ***             http://physics.nist.gov/constants

 Speed of light in vacuum [m/s]                             2.99792458000000E+08
 Magnetic constant or permeability of vacuum [N/A**2]       1.25663706143592E-06
 Electric constant or permittivity of vacuum [F/m]          8.85418781762039E-12
 Planck constant (h) [J*s]                                  6.62606896000000E-34
 Planck constant (h-bar) [J*s]                              1.05457162825177E-34
 Elementary charge [C]                                      1.60217648700000E-19
 Electron mass [kg]                                         9.10938215000000E-31
 Electron g factor [ ]                                     -2.00231930436220E+00
 Proton mass [kg]                                           1.67262163700000E-27
 Fine-structure constant                                    7.29735253760000E-03
 Rydberg constant [1/m]                                     1.09737315685270E+07
 Avogadro constant [1/mol]                                  6.02214179000000E+23
 Boltzmann constant [J/K]                                   1.38065040000000E-23
 Atomic mass unit [kg]                                      1.66053878200000E-27
 Bohr radius [m]                                            5.29177208590000E-11

 *** Conversion factors ***

 [u] -> [a.u.]                                              1.82288848426455E+03
 [Angstrom] -> [Bohr] = [a.u.]                              1.88972613288564E+00
 [a.u.] = [Bohr] -> [Angstrom]                              5.29177208590000E-01
 [a.u.] -> [s]                                              2.41888432650478E-17
 [a.u.] -> [fs]                                             2.41888432650478E-02
 [a.u.] -> [J]                                              4.35974393937059E-18
 [a.u.] -> [N]                                              8.23872205491840E-08
 [a.u.] -> [K]                                              3.15774647902944E+05
 [a.u.] -> [kJ/mol]                                         2.62549961709828E+03
 [a.u.] -> [kcal/mol]                                       6.27509468713739E+02
 [a.u.] -> [Pa]                                             2.94210107994716E+13
 [a.u.] -> [bar]                                            2.94210107994716E+08
 [a.u.] -> [atm]                                            2.90362800883016E+08
 [a.u.] -> [eV]                                             2.72113838565563E+01
 [a.u.] -> [Hz]                                             6.57968392072181E+15
 [a.u.] -> [1/cm] (wave numbers)                            2.19474631370540E+05
 [a.u./Bohr**2] -> [1/cm]                                   5.14048714338585E+03
 

 CELL_TOP| Volume [angstrom^3]:                                     27000.000000
 CELL_TOP| Vector a [angstrom    30.000     0.000     0.000   |a| =    30.000000
 CELL_TOP| Vector b [angstrom     0.000    30.000     0.000   |b| =    30.000000
 CELL_TOP| Vector c [angstrom     0.000     0.000    30.000   |c| =    30.000000
 CELL_TOP| Angle (b,c), alpha [degree]:                                90.000000
 CELL_TOP| Angle (a,c), beta  [degree]:                                90.000000
 CELL_TOP| Angle (a,b), gamma [degree]:                                90.000000
 CELL_TOP| Numerically orthorhombic:                                         YES
 CELL_TOP| Periodicity                                                      NONE

 GENERATE|  Preliminary Number of Bonds generated:                             0
 GENERATE|  Achieved consistency in connectivity generation.

 CELL| Volume [angstrom^3]:                                         27000.000000
 CELL| Vector a [angstrom]:      30.000     0.000     0.000   |a| =    30.000000
 CELL| Vector b [angstrom]:       0.000    30.000     0.000   |b| =    30.000000
 CELL| Vector c [angstrom]:       0.000     0.000    30.000   |c| =    30.000000
 CELL| Angle (b,c), alpha [degree]:                                    90.000000
 CELL| Angle (a,c), beta  [degree]:                                    90.000000
 CELL| Angle (a,b), gamma [degree]:                                    90.000000
 CELL| Numerically orthorhombic:                                             YES
 CELL| Periodicity                                                          NONE

 CELL_REF| Volume [angstrom^3]:                                     27000.000000
 CELL_REF| Vector a [angstrom    30.000     0.000     0.000   |a| =    30.000000
 CELL_REF| Vector b [angstrom     0.000    30.000     0.000   |b| =    30.000000
 CELL_REF| Vector c [angstrom     0.000     0.000    30.000   |c| =    30.000000
 CELL_REF| Angle (b,c), alpha [degree]:                                90.000000
 CELL_REF| Angle (a,c), beta  [degree]:                                90.000000
 CELL_REF| Angle (a,b), gamma [degree]:                                90.000000
 CELL_REF| Numerically orthorhombic:                                         YES
 CELL_REF| Periodicity                                                      NONE

 *******************************************************************************
 *******************************************************************************
 **                                                                           **
 **     #####                         ##              ##                      **
 **    ##   ##            ##          ##              ##                      **
 **   ##     ##                       ##            ######                    **
 **   ##     ##  ##   ##  ##   #####  ##  ##   ####   ##    #####    #####    **
 **   ##     ##  ##   ##  ##  ##      ## ##   ##      ##   ##   ##  ##   ##   **
 **   ##  ## ##  ##   ##  ##  ##      ####     ###    ##   ######   ######    **
 **    ##  ###   ##   ##  ##  ##      ## ##      ##   ##   ##       ##        **
 **     #######   #####   ##   #####  ##  ##  ####    ##    #####   ##        **
 **           ##                                                    ##        **
 **                                                                           **
 **                                                ... make the atoms dance   **
 **                                                                           **
 **            Copyright (C) by CP2K developers group (2000-2025)             **
 **                      J. Chem. Phys. 152, 194103 (2020)                    **
 **                                                                           **
 *******************************************************************************

 DFT| Spin restricted Kohn-Sham (RKS) calculation                            RKS
 DFT| Multiplicity                                                             1
 DFT| Number of spin states                                                    1
 DFT| Charge                                                                   0
 DFT| Self-interaction correction (SIC)                                       NO
 DFT| Cutoffs: density                                              1.000000E-10
 DFT|          gradient                                             1.000000E-10
 DFT|          tau                                                  1.000000E-10
 DFT|          cutoff_smoothing_range                               0.000000E+00
 DFT| XC density smoothing                                                  NONE
 DFT| XC derivatives                                                          PW

 FUNCTIONAL| PBE:
 FUNCTIONAL| J.P.Perdew, K.Burke, M.Ernzerhof, Phys. Rev. Letter, vol. 77, n 18,
 FUNCTIONAL|  pp. 3865-3868, (1996)sx=0.750sc=1.000{spin unpolarized}           


 QS| Method:                                                                GAPW
 QS| Density plane wave grid type                        NON-SPHERICAL FULLSPACE
 QS| Number of grid levels:                                                    4
 QS| Density cutoff [a.u.]:                                                250.0
 QS| Multi grid cutoff [a.u.]: 1) grid level                               250.0
 QS|                           2) grid level                                83.3
 QS|                           3) grid level                                27.8
 QS|                           4) grid level                                 9.3
 QS| Grid level progression factor:                                          3.0
 QS| Relative density cutoff [a.u.]:                                        50.0
 QS| Interaction thresholds: eps_pgf_orb:                                1.0E-12
 QS|                         eps_filter_matrix:                          0.0E+00
 QS|                         eps_core_charge:                            1.0E-14
 QS|                         eps_rho_gspace:                             1.0E-12
 QS|                         eps_rho_rspace:                             1.0E-12
 QS|                         eps_gvg_rspace:                             1.0E-06
 QS|                         eps_ppl:                                    1.0E-02
 QS|                         eps_ppnl:                                   1.0E-08
 QS| GAPW|      One center basis from orbital basis primitives
 QS| GAPW|                   eps_fit:                                    1.0E-04
 QS| GAPW|                   eps_iso:                                    1.0E-12
 QS| GAPW|                   eps_svd:                                    1.0E-08
 QS| GAPW|                   eps_cpc:                                    1.0E-12
 QS| GAPW|   atom-r-grid: quadrature:                                     GC_LOG
 QS| GAPW|      atom-s-grid:  max l :                                          8
 QS| GAPW|      max_l_rho0 :                                                   2


 ATOMIC KIND INFORMATION

  1. Atomic kind: B                                     Number of atoms:       2

     Orbital Basis Set                                        aug-TZVP-MOLOPT-ae

       Number of orbital shell sets:                                           2
       Number of orbital shells:                                              16
       Number of primitive Cartesian functions:                               14
       Number of Cartesian basis functions:                                   71
       Number of spherical basis functions:                                   56
       Norm type:                                                              2

       Normalised Cartesian orbitals:

                        Set   Shell   Orbital            Exponent    Coefficient

                          1       1    1s                0.037000       0.000000
                                                         0.055000       0.000000
                                                         0.081527       0.004479
                                                         0.231037       0.004596
                                                         0.627002      -0.034128
                                                         1.676500       0.393631
                                                         4.312240       1.325154
                                                        22.230570       0.835541

                          1       2    2s                0.037000       0.000000
                                                         0.055000       0.000000
                                                         0.081527       0.019156
                                                         0.231037       0.063291
                                                         0.627002       0.285761
                                                         1.676500       0.111410
                                                         4.312240      -0.066893
                                                        22.230570       0.380608

                          1       3    3s                0.037000       0.000000
                                                         0.055000       0.000000
                                                         0.081527       0.006030
                                                         0.231037       0.332555
                                                         0.627002      -0.285066
                                                         1.676500      -0.419641
                                                         4.312240       0.371542
                                                        22.230570      -1.681688

                          1       4    4s                0.037000       0.000000
                                                         0.055000       0.000000
                                                         0.081527       0.125733
                                                         0.231037      -0.011328
                                                         0.627002      -0.219216
                                                         1.676500       0.322739
                                                         4.312240      -0.760293
                                                        22.230570       1.905892

                          1       5    5s                0.037000       0.231931
                                                         0.055000      -0.273497
                                                         0.081527       0.006948
                                                         0.231037      -0.015074
                                                         0.627002       0.038509
                                                         1.676500       0.007320
                                                         4.312240       0.000000
                                                        22.230570       0.000000

                          1       6    2px               0.037000       0.000000
                                                         0.055000       0.000000
                                                         0.081527       0.001696
                                                         0.231037       0.008046
                                                         0.627002       0.466960
                                                         1.676500       0.900411
                                                         4.312240       1.390356
                                                        22.230570       4.654930
                          1       6    2py               0.037000       0.000000
                                                         0.055000       0.000000
                                                         0.081527       0.001696
                                                         0.231037       0.008046
                                                         0.627002       0.466960
                                                         1.676500       0.900411
                                                         4.312240       1.390356
                                                        22.230570       4.654930
                          1       6    2pz               0.037000       0.000000
                                                         0.055000       0.000000
                                                         0.081527       0.001696
                                                         0.231037       0.008046
                                                         0.627002       0.466960
                                                         1.676500       0.900411
                                                         4.312240       1.390356
                                                        22.230570       4.654930

                          1       7    3px               0.037000       0.000000
                                                         0.055000       0.000000
                                                         0.081527      -0.002807
                                                         0.231037       0.232786
                                                         0.627002       0.042448
                                                         1.676500      -0.296803
                                                         4.312240      -1.541502
                                                        22.230570      -2.619980
                          1       7    3py               0.037000       0.000000
                                                         0.055000       0.000000
                                                         0.081527      -0.002807
                                                         0.231037       0.232786
                                                         0.627002       0.042448
                                                         1.676500      -0.296803
                                                         4.312240      -1.541502
                                                        22.230570      -2.619980
                          1       7    3pz               0.037000       0.000000
                                                         0.055000       0.000000
                                                         0.081527      -0.002807
                                                         0.231037       0.232786
                                                         0.627002       0.042448
                                                         1.676500      -0.296803
                                                         4.312240      -1.541502
                                                        22.230570      -2.619980

                          1       8    4px               0.037000       0.000000
                                                         0.055000       0.000000
                                                         0.081527       0.060026
                                                         0.231037       0.011408
                                                         0.627002       0.008231
                                                         1.676500      -0.436837
                                                         4.312240       1.515783
                                                        22.230570      -8.036820
                          1       8    4py               0.037000       0.000000
                                                         0.055000       0.000000
                                                         0.081527       0.060026
                                                         0.231037       0.011408
                                                         0.627002       0.008231
                                                         1.676500      -0.436837
                                                         4.312240       1.515783
                                                        22.230570      -8.036820
                          1       8    4pz               0.037000       0.000000
                                                         0.055000       0.000000
                                                         0.081527       0.060026
                                                         0.231037       0.011408
                                                         0.627002       0.008231
                                                         1.676500      -0.436837
                                                         4.312240       1.515783
                                                        22.230570      -8.036820

                          1       9    5px               0.037000       0.000467
                                                         0.055000      -0.024055
                                                         0.081527      -0.022149
                                                         0.231037      -0.019624
                                                         0.627002       0.043495
                                                         1.676500       0.050078
                                                         4.312240       0.000000
                                                        22.230570       0.000000
                          1       9    5py               0.037000       0.000467
                                                         0.055000      -0.024055
                                                         0.081527      -0.022149
                                                         0.231037      -0.019624
                                                         0.627002       0.043495
                                                         1.676500       0.050078
                                                         4.312240       0.000000
                                                        22.230570       0.000000
                          1       9    5pz               0.037000       0.000467
                                                         0.055000      -0.024055
                                                         0.081527      -0.022149
                                                         0.231037      -0.019624
                                                         0.627002       0.043495
                                                         1.676500       0.050078
                                                         4.312240       0.000000
                                                        22.230570       0.000000

                          1      10    3dx2              0.037000       0.000000
                                                         0.055000       0.000000
                                                         0.081527       0.002153
                                                         0.231037       0.011346
                                                         0.627002       0.387577
                                                         1.676500       2.056214
                                                         4.312240      -1.635688
                                                        22.230570     -74.959133
                          1      10    3dxy              0.037000       0.000000
                                                         0.055000       0.000000
                                                         0.081527       0.003728
                                                         0.231037       0.019651
                                                         0.627002       0.671303
                                                         1.676500       3.561468
                                                         4.312240      -2.833095
                                                        22.230570    -129.833027
                          1      10    3dxz              0.037000       0.000000
                                                         0.055000       0.000000
                                                         0.081527       0.003728
                                                         0.231037       0.019651
                                                         0.627002       0.671303
                                                         1.676500       3.561468
                                                         4.312240      -2.833095
                                                        22.230570    -129.833027
                          1      10    3dy2              0.037000       0.000000
                                                         0.055000       0.000000
                                                         0.081527       0.002153
                                                         0.231037       0.011346
                                                         0.627002       0.387577
                                                         1.676500       2.056214
                                                         4.312240      -1.635688
                                                        22.230570     -74.959133
                          1      10    3dyz              0.037000       0.000000
                                                         0.055000       0.000000
                                                         0.081527       0.003728
                                                         0.231037       0.019651
                                                         0.627002       0.671303
                                                         1.676500       3.561468
                                                         4.312240      -2.833095
                                                        22.230570    -129.833027
                          1      10    3dz2              0.037000       0.000000
                                                         0.055000       0.000000
                                                         0.081527       0.002153
                                                         0.231037       0.011346
                                                         0.627002       0.387577
                                                         1.676500       2.056214
                                                         4.312240      -1.635688
                                                        22.230570     -74.959133

                          1      11    4dx2              0.037000       0.000000
                                                         0.055000       0.000000
                                                         0.081527      -0.002553
                                                         0.231037       0.105095
                                                         0.627002       0.288898
                                                         1.676500      -1.711794
                                                         4.312240       1.670808
                                                        22.230570     100.877982
                          1      11    4dxy              0.037000       0.000000
                                                         0.055000       0.000000
                                                         0.081527      -0.004422
                                                         0.231037       0.182030
                                                         0.627002       0.500386
                                                         1.676500      -2.964914
                                                         4.312240       2.893924
                                                        22.230570     174.725791
                          1      11    4dxz              0.037000       0.000000
                                                         0.055000       0.000000
                                                         0.081527      -0.004422
                                                         0.231037       0.182030
                                                         0.627002       0.500386
                                                         1.676500      -2.964914
                                                         4.312240       2.893924
                                                        22.230570     174.725791
                          1      11    4dy2              0.037000       0.000000
                                                         0.055000       0.000000
                                                         0.081527      -0.002553
                                                         0.231037       0.105095
                                                         0.627002       0.288898
                                                         1.676500      -1.711794
                                                         4.312240       1.670808
                                                        22.230570     100.877982
                          1      11    4dyz              0.037000       0.000000
                                                         0.055000       0.000000
                                                         0.081527      -0.004422
                                                         0.231037       0.182030
                                                         0.627002       0.500386
                                                         1.676500      -2.964914
                                                         4.312240       2.893924
                                                        22.230570     174.725791
                          1      11    4dz2              0.037000       0.000000
                                                         0.055000       0.000000
                                                         0.081527      -0.002553
                                                         0.231037       0.105095
                                                         0.627002       0.288898
                                                         1.676500      -1.711794
                                                         4.312240       1.670808
                                                        22.230570     100.877982

                          1      12    5dx2              0.037000       0.000836
                                                         0.055000       0.008173
                                                         0.081527       0.001542
                                                         0.231037      -0.005613
                                                         0.627002       0.001771
                                                         1.676500       0.009900
                                                         4.312240       0.000000
                                                        22.230570       0.000000
                          1      12    5dxy              0.037000       0.001448
                                                         0.055000       0.014155
                                                         0.081527       0.002671
                                                         0.231037      -0.009722
                                                         0.627002       0.003067
                                                         1.676500       0.017147
                                                         4.312240       0.000000
                                                        22.230570       0.000000
                          1      12    5dxz              0.037000       0.001448
                                                         0.055000       0.014155
                                                         0.081527       0.002671
                                                         0.231037      -0.009722
                                                         0.627002       0.003067
                                                         1.676500       0.017147
                                                         4.312240       0.000000
                                                        22.230570       0.000000
                          1      12    5dy2              0.037000       0.000836
                                                         0.055000       0.008173
                                                         0.081527       0.001542
                                                         0.231037      -0.005613
                                                         0.627002       0.001771
                                                         1.676500       0.009900
                                                         4.312240       0.000000
                                                        22.230570       0.000000
                          1      12    5dyz              0.037000       0.001448
                                                         0.055000       0.014155
                                                         0.081527       0.002671
                                                         0.231037      -0.009722
                                                         0.627002       0.003067
                                                         1.676500       0.017147
                                                         4.312240       0.000000
                                                        22.230570       0.000000
                          1      12    5dz2              0.037000       0.000836
                                                         0.055000       0.008173
                                                         0.081527       0.001542
                                                         0.231037      -0.005613
                                                         0.627002       0.001771
                                                         1.676500       0.009900
                                                         4.312240       0.000000
                                                        22.230570       0.000000

                          1      13    4fx3              0.037000       0.000000
                                                         0.055000       0.000000
                                                         0.081527      -0.000984
                                                         0.231037       0.018935
                                                         0.627002       0.373794
                                                         1.676500       0.585978
                                                         4.312240      -0.290033
                                                        22.230570      20.762424
                          1      13    4fx2y             0.037000       0.000000
                                                         0.055000       0.000000
                                                         0.081527      -0.002200
                                                         0.231037       0.042339
                                                         0.627002       0.835829
                                                         1.676500       1.310286
                                                         4.312240      -0.648533
                                                        22.230570      46.426192
                          1      13    4fx2z             0.037000       0.000000
                                                         0.055000       0.000000
                                                         0.081527      -0.002200
                                                         0.231037       0.042339
                                                         0.627002       0.835829
                                                         1.676500       1.310286
                                                         4.312240      -0.648533
                                                        22.230570      46.426192
                          1      13    4fxy2             0.037000       0.000000
                                                         0.055000       0.000000
                                                         0.081527      -0.002200
                                                         0.231037       0.042339
                                                         0.627002       0.835829
                                                         1.676500       1.310286
                                                         4.312240      -0.648533
                                                        22.230570      46.426192
                          1      13    4fxyz             0.037000       0.000000
                                                         0.055000       0.000000
                                                         0.081527      -0.003810
                                                         0.231037       0.073333
                                                         0.627002       1.447698
                                                         1.676500       2.269481
                                                         4.312240      -1.123293
                                                        22.230570      80.412523
                          1      13    4fxz2             0.037000       0.000000
                                                         0.055000       0.000000
                                                         0.081527      -0.002200
                                                         0.231037       0.042339
                                                         0.627002       0.835829
                                                         1.676500       1.310286
                                                         4.312240      -0.648533
                                                        22.230570      46.426192
                          1      13    4fy3              0.037000       0.000000
                                                         0.055000       0.000000
                                                         0.081527      -0.000984
                                                         0.231037       0.018935
                                                         0.627002       0.373794
                                                         1.676500       0.585978
                                                         4.312240      -0.290033
                                                        22.230570      20.762424
                          1      13    4fy2z             0.037000       0.000000
                                                         0.055000       0.000000
                                                         0.081527      -0.002200
                                                         0.231037       0.042339
                                                         0.627002       0.835829
                                                         1.676500       1.310286
                                                         4.312240      -0.648533
                                                        22.230570      46.426192
                          1      13    4fyz2             0.037000       0.000000
                                                         0.055000       0.000000
                                                         0.081527      -0.002200
                                                         0.231037       0.042339
                                                         0.627002       0.835829
                                                         1.676500       1.310286
                                                         4.312240      -0.648533
                                                        22.230570      46.426192
                          1      13    4fz3              0.037000       0.000000
                                                         0.055000       0.000000
                                                         0.081527      -0.000984
                                                         0.231037       0.018935
                                                         0.627002       0.373794
                                                         1.676500       0.585978
                                                         4.312240      -0.290033
                                                        22.230570      20.762424

                          1      14    5fx3              0.037000       0.000585
                                                         0.055000       0.000724
                                                         0.081527       0.000168
                                                         0.231037      -0.001009
                                                         0.627002       0.001060
                                                         1.676500       0.009690
                                                         4.312240       0.000000
                                                        22.230570       0.000000
                          1      14    5fx2y             0.037000       0.001309
                                                         0.055000       0.001618
                                                         0.081527       0.000375
                                                         0.231037      -0.002256
                                                         0.627002       0.002370
                                                         1.676500       0.021667
                                                         4.312240       0.000000
                                                        22.230570       0.000000
                          1      14    5fx2z             0.037000       0.001309
                                                         0.055000       0.001618
                                                         0.081527       0.000375
                                                         0.231037      -0.002256
                                                         0.627002       0.002370
                                                         1.676500       0.021667
                                                         4.312240       0.000000
                                                        22.230570       0.000000
                          1      14    5fxy2             0.037000       0.001309
                                                         0.055000       0.001618
                                                         0.081527       0.000375
                                                         0.231037      -0.002256
                                                         0.627002       0.002370
                                                         1.676500       0.021667
                                                         4.312240       0.000000
                                                        22.230570       0.000000
                          1      14    5fxyz             0.037000       0.002267
                                                         0.055000       0.002802
                                                         0.081527       0.000650
                                                         0.231037      -0.003908
                                                         0.627002       0.004105
                                                         1.676500       0.037529
                                                         4.312240       0.000000
                                                        22.230570       0.000000
                          1      14    5fxz2             0.037000       0.001309
                                                         0.055000       0.001618
                                                         0.081527       0.000375
                                                         0.231037      -0.002256
                                                         0.627002       0.002370
                                                         1.676500       0.021667
                                                         4.312240       0.000000
                                                        22.230570       0.000000
                          1      14    5fy3              0.037000       0.000585
                                                         0.055000       0.000724
                                                         0.081527       0.000168
                                                         0.231037      -0.001009
                                                         0.627002       0.001060
                                                         1.676500       0.009690
                                                         4.312240       0.000000
                                                        22.230570       0.000000
                          1      14    5fy2z             0.037000       0.001309
                                                         0.055000       0.001618
                                                         0.081527       0.000375
                                                         0.231037      -0.002256
                                                         0.627002       0.002370
                                                         1.676500       0.021667
                                                         4.312240       0.000000
                                                        22.230570       0.000000
                          1      14    5fyz2             0.037000       0.001309
                                                         0.055000       0.001618
                                                         0.081527       0.000375
                                                         0.231037      -0.002256
                                                         0.627002       0.002370
                                                         1.676500       0.021667
                                                         4.312240       0.000000
                                                        22.230570       0.000000
                          1      14    5fz3              0.037000       0.000585
                                                         0.055000       0.000724
                                                         0.081527       0.000168
                                                         0.231037      -0.001009
                                                         0.627002       0.001060
                                                         1.676500       0.009690
                                                         4.312240       0.000000
                                                        22.230570       0.000000

                          1      15    5gx4              0.037000       0.000024
                                                         0.055000       0.000028
                                                         0.081527       0.000892
                                                         0.231037       0.000285
                                                         0.627002       0.001746
                                                         1.676500       0.026101
                                                         4.312240       0.000000
                                                        22.230570       0.000000
                          1      15    5gx3y             0.037000       0.000063
                                                         0.055000       0.000074
                                                         0.081527       0.002360
                                                         0.231037       0.000753
                                                         0.627002       0.004619
                                                         1.676500       0.069058
                                                         4.312240       0.000000
                                                        22.230570       0.000000
                          1      15    5gx3z             0.037000       0.000063
                                                         0.055000       0.000074
                                                         0.081527       0.002360
                                                         0.231037       0.000753
                                                         0.627002       0.004619
                                                         1.676500       0.069058
                                                         4.312240       0.000000
                                                        22.230570       0.000000
                          1      15    5gx2y2            0.037000       0.000082
                                                         0.055000       0.000096
                                                         0.081527       0.003047
                                                         0.231037       0.000972
                                                         0.627002       0.005964
                                                         1.676500       0.089153
                                                         4.312240       0.000000
                                                        22.230570       0.000000
                          1      15    5gx2yz            0.037000       0.000141
                                                         0.055000       0.000165
                                                         0.081527       0.005277
                                                         0.231037       0.001684
                                                         0.627002       0.010329
                                                         1.676500       0.154418
                                                         4.312240       0.000000
                                                        22.230570       0.000000
                          1      15    5gx2z2            0.037000       0.000082
                                                         0.055000       0.000096
                                                         0.081527       0.003047
                                                         0.231037       0.000972
                                                         0.627002       0.005964
                                                         1.676500       0.089153
                                                         4.312240       0.000000
                                                        22.230570       0.000000
                          1      15    5gxy3             0.037000       0.000063
                                                         0.055000       0.000074
                                                         0.081527       0.002360
                                                         0.231037       0.000753
                                                         0.627002       0.004619
                                                         1.676500       0.069058
                                                         4.312240       0.000000
                                                        22.230570       0.000000
                          1      15    5gxy2z            0.037000       0.000141
                                                         0.055000       0.000165
                                                         0.081527       0.005277
                                                         0.231037       0.001684
                                                         0.627002       0.010329
                                                         1.676500       0.154418
                                                         4.312240       0.000000
                                                        22.230570       0.000000
                          1      15    5gxyz2            0.037000       0.000141
                                                         0.055000       0.000165
                                                         0.081527       0.005277
                                                         0.231037       0.001684
                                                         0.627002       0.010329
                                                         1.676500       0.154418
                                                         4.312240       0.000000
                                                        22.230570       0.000000
                          1      15    5gxz3             0.037000       0.000063
                                                         0.055000       0.000074
                                                         0.081527       0.002360
                                                         0.231037       0.000753
                                                         0.627002       0.004619
                                                         1.676500       0.069058
                                                         4.312240       0.000000
                                                        22.230570       0.000000
                          1      15    5gy4              0.037000       0.000024
                                                         0.055000       0.000028
                                                         0.081527       0.000892
                                                         0.231037       0.000285
                                                         0.627002       0.001746
                                                         1.676500       0.026101
                                                         4.312240       0.000000
                                                        22.230570       0.000000
                          1      15    5gy3z             0.037000       0.000063
                                                         0.055000       0.000074
                                                         0.081527       0.002360
                                                         0.231037       0.000753
                                                         0.627002       0.004619
                                                         1.676500       0.069058
                                                         4.312240       0.000000
                                                        22.230570       0.000000
                          1      15    5gy2z2            0.037000       0.000082
                                                         0.055000       0.000096
                                                         0.081527       0.003047
                                                         0.231037       0.000972
                                                         0.627002       0.005964
                                                         1.676500       0.089153
                                                         4.312240       0.000000
                                                        22.230570       0.000000
                          1      15    5gyz3             0.037000       0.000063
                                                         0.055000       0.000074
                                                         0.081527       0.002360
                                                         0.231037       0.000753
                                                         0.627002       0.004619
                                                         1.676500       0.069058
                                                         4.312240       0.000000
                                                        22.230570       0.000000
                          1      15    5gz4              0.037000       0.000024
                                                         0.055000       0.000028
                                                         0.081527       0.000892
                                                         0.231037       0.000285
                                                         0.627002       0.001746
                                                         1.676500       0.026101
                                                         4.312240       0.000000
                                                        22.230570       0.000000

                          2       1    1s             8564.805310       0.470718
                                                      1284.266148       1.037560
                                                       292.317852       1.564613
                                                        82.773089       2.737633
                                                        26.955680       2.121910
                                                         9.937437       2.701101

     RI Auxiliary Basis Set             RI_aug-TZVP-MOLOPT-ae_N_RI_034_s_p_d_f_g

       Number of orbital shell sets:                                          12
       Number of orbital shells:                                              12
       Number of primitive Cartesian functions:                               12
       Number of Cartesian basis functions:                                   39
       Number of spherical basis functions:                                   34
       Norm type:                                                              2

       Normalised Cartesian orbitals:

                        Set   Shell   Orbital            Exponent    Coefficient

                          1       1    1s                0.184868       0.200936

                          2       1    6px               0.296925       0.312427
                          2       1    6py               0.296925       0.312427
                          2       1    6pz               0.296925       0.312427

                          3       1   10dx2              0.391104       0.318362
                          3       1   10dxy              0.391104       0.551419
                          3       1   10dxz              0.391104       0.551419
                          3       1   10dy2              0.391104       0.318362
                          3       1   10dyz              0.391104       0.551419
                          3       1   10dz2              0.391104       0.318362

                          4       1    2s                0.393377       0.354011

                          5       1    7px               0.442150       0.513927
                          5       1    7py               0.442150       0.513927
                          5       1    7pz               0.442150       0.513927

                          6       1   12fx3              0.766642       0.809631
                          6       1   12fx2y             0.766642       1.810391
                          6       1   12fx2z             0.766642       1.810391
                          6       1   12fxy2             0.766642       1.810391
                          6       1   12fxyz             0.766642       3.135689
                          6       1   12fxz2             0.766642       1.810391
                          6       1   12fy3              0.766642       0.809631
                          6       1   12fy2z             0.766642       1.810391
                          6       1   12fyz2             0.766642       1.810391
                          6       1   12fz3              0.766642       0.809631

                          7       1   11dx2              0.937586       1.470377
                          7       1   11dxy              0.937586       2.546767
                          7       1   11dxz              0.937586       2.546767
                          7       1   11dy2              0.937586       1.470377
                          7       1   11dyz              0.937586       2.546767
                          7       1   11dz2              0.937586       1.470377

                          8       1    3s                1.114731       0.773193

                          9       1    8px               1.994911       3.379439
                          9       1    8py               1.994911       3.379439
                          9       1    8pz               1.994911       3.379439

                         10       1    4s                5.600728       2.594738

                         11       1    9px              10.547589      27.094528
                         11       1    9py              10.547589      27.094528
                         11       1    9pz              10.547589      27.094528

                         12       1    5s               35.118619      10.281658

       Atomic covalent radius [Angstrom]:                                  0.820

       Atomic van der Waals radius [Angstrom]:                             1.920

     The atoms of this atomic kind are PAW atoms (GAPW):
       Hard Gaussian function radius:                                      1.512
       Rho0 radius:                                                        1.512
       Maximum GTO radius used for PAW projector construction:            24.566

     GAPW Soft Basis Set                                 aug-TZVP-MOLOPT-ae_soft

       Number of orbital shell sets:                                           2
       Number of orbital shells:                                              16
       Number of primitive Cartesian functions:                                7
       Number of Cartesian basis functions:                                   71
       Number of spherical basis functions:                                   56
       Norm type:                                                              2

       Normalised Cartesian orbitals:

                        Set   Shell   Orbital            Exponent    Coefficient

                          1       1    1s                0.037000       0.000000
                                                         0.055000       0.000000
                                                         0.081527       0.004479
                                                         0.231037       0.004596
                                                         0.627002      -0.034128
                                                         1.676500       0.393631
                                                         4.312240       0.000000

                          1       2    2s                0.037000       0.000000
                                                         0.055000       0.000000
                                                         0.081527       0.019156
                                                         0.231037       0.063291
                                                         0.627002       0.285761
                                                         1.676500       0.111410
                                                         4.312240       0.000000

                          1       3    3s                0.037000       0.000000
                                                         0.055000       0.000000
                                                         0.081527       0.006030
                                                         0.231037       0.332555
                                                         0.627002      -0.285066
                                                         1.676500      -0.419641
                                                         4.312240       0.000000

                          1       4    4s                0.037000       0.000000
                                                         0.055000       0.000000
                                                         0.081527       0.125733
                                                         0.231037      -0.011328
                                                         0.627002      -0.219216
                                                         1.676500       0.322739
                                                         4.312240       0.000000

                          1       5    5s                0.037000       0.231931
                                                         0.055000      -0.273497
                                                         0.081527       0.006948
                                                         0.231037      -0.015074
                                                         0.627002       0.038509
                                                         1.676500       0.007320
                                                         4.312240       0.000000

                          1       6    2px               0.037000       0.000000
                                                         0.055000       0.000000
                                                         0.081527       0.001696
                                                         0.231037       0.008046
                                                         0.627002       0.466960
                                                         1.676500       0.900411
                                                         4.312240       0.000000
                          1       6    2py               0.037000       0.000000
                                                         0.055000       0.000000
                                                         0.081527       0.001696
                                                         0.231037       0.008046
                                                         0.627002       0.466960
                                                         1.676500       0.900411
                                                         4.312240       0.000000
                          1       6    2pz               0.037000       0.000000
                                                         0.055000       0.000000
                                                         0.081527       0.001696
                                                         0.231037       0.008046
                                                         0.627002       0.466960
                                                         1.676500       0.900411
                                                         4.312240       0.000000

                          1       7    3px               0.037000       0.000000
                                                         0.055000       0.000000
                                                         0.081527      -0.002807
                                                         0.231037       0.232786
                                                         0.627002       0.042448
                                                         1.676500      -0.296803
                                                         4.312240       0.000000
                          1       7    3py               0.037000       0.000000
                                                         0.055000       0.000000
                                                         0.081527      -0.002807
                                                         0.231037       0.232786
                                                         0.627002       0.042448
                                                         1.676500      -0.296803
                                                         4.312240       0.000000
                          1       7    3pz               0.037000       0.000000
                                                         0.055000       0.000000
                                                         0.081527      -0.002807
                                                         0.231037       0.232786
                                                         0.627002       0.042448
                                                         1.676500      -0.296803
                                                         4.312240       0.000000

                          1       8    4px               0.037000       0.000000
                                                         0.055000       0.000000
                                                         0.081527       0.060026
                                                         0.231037       0.011408
                                                         0.627002       0.008231
                                                         1.676500      -0.436837
                                                         4.312240       0.000000
                          1       8    4py               0.037000       0.000000
                                                         0.055000       0.000000
                                                         0.081527       0.060026
                                                         0.231037       0.011408
                                                         0.627002       0.008231
                                                         1.676500      -0.436837
                                                         4.312240       0.000000
                          1       8    4pz               0.037000       0.000000
                                                         0.055000       0.000000
                                                         0.081527       0.060026
                                                         0.231037       0.011408
                                                         0.627002       0.008231
                                                         1.676500      -0.436837
                                                         4.312240       0.000000

                          1       9    5px               0.037000       0.000467
                                                         0.055000      -0.024055
                                                         0.081527      -0.022149
                                                         0.231037      -0.019624
                                                         0.627002       0.043495
                                                         1.676500       0.050078
                                                         4.312240       0.000000
                          1       9    5py               0.037000       0.000467
                                                         0.055000      -0.024055
                                                         0.081527      -0.022149
                                                         0.231037      -0.019624
                                                         0.627002       0.043495
                                                         1.676500       0.050078
                                                         4.312240       0.000000
                          1       9    5pz               0.037000       0.000467
                                                         0.055000      -0.024055
                                                         0.081527      -0.022149
                                                         0.231037      -0.019624
                                                         0.627002       0.043495
                                                         1.676500       0.050078
                                                         4.312240       0.000000

                          1      10    3dx2              0.037000       0.000000
                                                         0.055000       0.000000
                                                         0.081527       0.002153
                                                         0.231037       0.011346
                                                         0.627002       0.387577
                                                         1.676500       2.056214
                                                         4.312240      -1.635688
                          1      10    3dxy              0.037000       0.000000
                                                         0.055000       0.000000
                                                         0.081527       0.003728
                                                         0.231037       0.019651
                                                         0.627002       0.671303
                                                         1.676500       3.561468
                                                         4.312240      -2.833095
                          1      10    3dxz              0.037000       0.000000
                                                         0.055000       0.000000
                                                         0.081527       0.003728
                                                         0.231037       0.019651
                                                         0.627002       0.671303
                                                         1.676500       3.561468
                                                         4.312240      -2.833095
                          1      10    3dy2              0.037000       0.000000
                                                         0.055000       0.000000
                                                         0.081527       0.002153
                                                         0.231037       0.011346
                                                         0.627002       0.387577
                                                         1.676500       2.056214
                                                         4.312240      -1.635688
                          1      10    3dyz              0.037000       0.000000
                                                         0.055000       0.000000
                                                         0.081527       0.003728
                                                         0.231037       0.019651
                                                         0.627002       0.671303
                                                         1.676500       3.561468
                                                         4.312240      -2.833095
                          1      10    3dz2              0.037000       0.000000
                                                         0.055000       0.000000
                                                         0.081527       0.002153
                                                         0.231037       0.011346
                                                         0.627002       0.387577
                                                         1.676500       2.056214
                                                         4.312240      -1.635688

[...]
   418 Broy./Diag. 0.10E+00    6.0     0.03912875       -49.1663514023 -4.03E-02
   419 Broy./Diag. 0.10E+00    6.0     0.04267346       -49.1589298189  7.42E-03
   420 Broy./Diag. 0.10E+00    6.0     0.02485253       -49.1767997588 -1.79E-02
   421 Broy./Diag. 0.10E+00    6.0     0.03413812       -49.2280924602 -5.13E-02
   422 Broy./Diag. 0.10E+00    6.0     0.03602907       -49.2777562519 -4.97E-02
   423 Broy./Diag. 0.10E+00    6.0     0.02284074       -49.3191380050 -4.14E-02
   424 Broy./Diag. 0.10E+00    6.0     0.08205926       -49.2229465370  9.62E-02
   425 Broy./Diag. 0.10E+00    6.2     0.03710151       -49.2426120774 -1.97E-02
   426 Broy./Diag. 0.10E+00    6.0     0.03065240       -49.3300244347 -8.74E-02
   427 Broy./Diag. 0.10E+00    6.1     0.04893808       -49.3989251042 -6.89E-02
   428 Broy./Diag. 0.10E+00    6.0     0.03448263       -49.3667896403  3.21E-02
   429 Broy./Diag. 0.10E+00    6.0     0.02607074       -49.3356171874  3.12E-02
   430 Broy./Diag. 0.10E+00    6.0     0.03242713       -49.3404237506 -4.81E-03
   431 Broy./Diag. 0.10E+00    6.0     0.01848125       -49.3359676892  4.46E-03
   432 Broy./Diag. 0.10E+00    6.0     0.01352119       -49.3395577651 -3.59E-03
   433 Broy./Diag. 0.10E+00    6.0     0.02582325       -49.3602650315 -2.07E-02
   434 Broy./Diag. 0.10E+00    6.0     0.02126202       -49.3546609314  5.60E-03
   435 Broy./Diag. 0.10E+00    6.0     0.02191026       -49.3594963609 -4.84E-03
   436 Broy./Diag. 0.10E+00    6.0     0.02507715       -49.3576030566  1.89E-03
   437 Broy./Diag. 0.10E+00    6.0     0.02528423       -49.3451989295  1.24E-02
   438 Broy./Diag. 0.10E+00    6.0     0.02231554       -49.3329941596  1.22E-02
   439 Broy./Diag. 0.10E+00    6.0     0.01722820       -49.3236871787  9.31E-03
   440 Broy./Diag. 0.10E+00    6.0     0.01876676       -49.3072120150  1.65E-02
   441 Broy./Diag. 0.10E+00    6.0     0.01980307       -49.2839210263  2.33E-02
   442 Broy./Diag. 0.10E+00    6.0     0.01691474       -49.2743444594  9.58E-03
   443 Broy./Diag. 0.10E+00    6.0     0.01229442       -49.2663927123  7.95E-03
   444 Broy./Diag. 0.10E+00    6.1     0.02064179       -49.2375614034  2.88E-02
   445 Broy./Diag. 0.10E+00    6.0     0.02232792       -49.2192042670  1.84E-02
   446 Broy./Diag. 0.10E+00    6.0     0.01752903       -49.1949080723  2.43E-02
   447 Broy./Diag. 0.10E+00    6.1     0.02318912       -49.1637967170  3.11E-02
   448 Broy./Diag. 0.10E+00    6.1     0.01944507       -49.1407194681  2.31E-02
   449 Broy./Diag. 0.10E+00    6.1     0.01979278       -49.1365298198  4.19E-03
   450 Broy./Diag. 0.10E+00    6.1     0.01910021       -49.1347011039  1.83E-03
   451 Broy./Diag. 0.10E+00    6.0     0.01826820       -49.1850327571 -5.03E-02
   452 Broy./Diag. 0.10E+00    6.0     0.02755437       -49.2702850842 -8.53E-02
   453 Broy./Diag. 0.10E+00    6.0     0.01297629       -49.2349276017  3.54E-02
   454 Broy./Diag. 0.10E+00    6.0     0.04664591       -49.3170949788 -8.22E-02
   455 Broy./Diag. 0.10E+00    5.9     0.03382006       -49.3790920325 -6.20E-02
   456 Broy./Diag. 0.10E+00    6.0     0.02723586       -49.4577513214 -7.87E-02
   457 Broy./Diag. 0.10E+00    6.0     0.02205600       -49.4510896446  6.66E-03
   458 Broy./Diag. 0.10E+00    6.0     0.01956088       -49.4361011336  1.50E-02
   459 Broy./Diag. 0.10E+00    6.0     0.01942163       -49.4616034802 -2.55E-02
   460 Broy./Diag. 0.10E+00    5.9     0.02276195       -49.4830743565 -2.15E-02
   461 Broy./Diag. 0.10E+00    6.0     0.02784812       -49.4499674778  3.31E-02
   462 Broy./Diag. 0.10E+00    6.0     0.04280323       -49.3994771124  5.05E-02
   463 Broy./Diag. 0.10E+00    5.9     0.02683340       -49.3812748085  1.82E-02
   464 Broy./Diag. 0.10E+00    6.0     0.02559471       -49.3717360231  9.54E-03
   465 Broy./Diag. 0.10E+00    6.0     0.01408665       -49.3612567187  1.05E-02
   466 Broy./Diag. 0.10E+00    6.0     0.01181077       -49.3583058281  2.95E-03
   467 Broy./Diag. 0.10E+00    6.0     0.08364415       -49.3663518816 -8.05E-03
   468 Broy./Diag. 0.10E+00    6.0     0.02669828       -49.3575879310  8.76E-03
   469 Broy./Diag. 0.10E+00    6.0     0.02730389       -49.3083564870  4.92E-02
   470 Broy./Diag. 0.10E+00    6.0     0.01239679       -49.3017729984  6.58E-03
   471 Broy./Diag. 0.10E+00    6.0     0.02472724       -49.3246824629 -2.29E-02
   472 Broy./Diag. 0.10E+00    6.1     0.05821636       -49.2985830334  2.61E-02
   473 Broy./Diag. 0.10E+00    6.0     0.06135386       -49.3238964590 -2.53E-02
   474 Broy./Diag. 0.10E+00    6.0     0.01763996       -49.3299971231 -6.10E-03
   475 Broy./Diag. 0.10E+00    6.0     0.03047693       -49.3260077952  3.99E-03
   476 Broy./Diag. 0.10E+00    6.0     0.04200739       -49.3521050974 -2.61E-02
   477 Broy./Diag. 0.10E+00    6.0     0.02450881       -49.3683697092 -1.63E-02
   478 Broy./Diag. 0.10E+00    6.0     0.02223174       -49.3642846921  4.09E-03
   479 Broy./Diag. 0.10E+00    6.0     0.01197167       -49.3562000924  8.08E-03
   480 Broy./Diag. 0.10E+00    6.0     0.01412656       -49.3618730395 -5.67E-03
   481 Broy./Diag. 0.10E+00    6.0     0.01525312       -49.3605076954  1.37E-03
   482 Broy./Diag. 0.10E+00    6.0     0.01634670       -49.3422277627  1.83E-02
   483 Broy./Diag. 0.10E+00    6.0     0.01395414       -49.3284202835  1.38E-02
   484 Broy./Diag. 0.10E+00    6.0     0.01071989       -49.3274758684  9.44E-04
   485 Broy./Diag. 0.10E+00    6.0     0.00979043       -49.3242153205  3.26E-03
   486 Broy./Diag. 0.10E+00    6.0     0.01150266       -49.3302437473 -6.03E-03
   487 Broy./Diag. 0.10E+00    6.0     0.01519345       -49.3236272676  6.62E-03
   488 Broy./Diag. 0.10E+00    6.0     0.01517769       -49.3229315991  6.96E-04
   489 Broy./Diag. 0.10E+00    6.1     0.02517000       -49.2961249594  2.68E-02
   490 Broy./Diag. 0.10E+00    6.1     0.02156203       -49.2765080679  1.96E-02
   491 Broy./Diag. 0.10E+00    6.0     0.02742062       -49.2566823305  1.98E-02
   492 Broy./Diag. 0.10E+00    6.1     0.02981999       -49.2376026704  1.91E-02
   493 Broy./Diag. 0.10E+00    6.0     0.02623759       -49.2248942676  1.27E-02
   494 Broy./Diag. 0.10E+00    6.0     0.02064990       -49.2155000655  9.39E-03
   495 Broy./Diag. 0.10E+00    6.0     0.01494703       -49.2079808593  7.52E-03
   496 Broy./Diag. 0.10E+00    6.0     0.01462901       -49.2080790622 -9.82E-05
   497 Broy./Diag. 0.10E+00    6.0     0.01089199       -49.2216052131 -1.35E-02
   498 Broy./Diag. 0.10E+00    6.0     0.01140629       -49.2214940564  1.11E-04
   499 Broy./Diag. 0.10E+00    6.0     0.04955303       -49.2651381798 -4.36E-02
   500 Broy./Diag. 0.10E+00    6.0     0.02242452       -49.2830227645 -1.79E-02

  Leaving inner SCF loop after reaching   500 steps.


  Electronic density on regular grids:         -6.2881164418        3.7118835582
  Core density on regular grids:               10.0000000000        0.0000000000
  Hard and soft densities (Lebedev):          -30.9136349819      -27.2035933840
  Total Rho_soft + Rho1_hard - Rho1_soft       -9.9981580397
  Total charge density (r-space):               0.0018419603
  Total Rho_soft + Rho0_soft (g-space):         0.0018418994

  Overlap energy of the core charge distribution:               0.00000845868521
  Self energy of the core charge distribution:                -32.50467561761386
  Core Hamiltonian energy:                                    -13.37975790774111
  Hartree energy:                                              11.41521634202711
  Exchange-correlation energy:                                 -1.51477440485110
  Hartree-Fock Exchange energy:                                -1.88853387928152

  GAPW| Exc from hard and soft atomic rho1:                    -4.40240495249213
  GAPW| local Eh = 1 center integrals:                         -7.00810080324226

  Total energy:                                               -49.28302276450967

 *******************************************************************************
 *   ___                                                                       *
 *  /   \                                                                      *
 * [ABORT]                                                                     *
 *  \___/     SCF run NOT converged. To continue the calculation regardless,   *
 *    |             please set the keyword IGNORE_CONVERGENCE_FAILURE.         *
 *  O/|                                                                        *
 * /| |                                                                        *
 * / \                                                            qs_scf.F:611 *
 *******************************************************************************


 ===== Routine Calling Stack ===== 

            3 scf_env_do_scf
            2 qs_energies
            1 CP2K

 *******************************************************************************
 *   ___                                                                       *
 *  /   \                                                                      *
 * [ABORT]                                                                     *
 *  \___/     SCF run NOT converged. To continue the calculation regardless,   *
 *    |             please set the keyword IGNORE_CONVERGENCE_FAILURE.         *
 *  O/|                                                                        *
 * /| |                                                                        *
 * / \                                                            qs_scf.F:611 *
 *******************************************************************************


 ===== Routine Calling Stack ===== 

            3 scf_env_do_scf
            2 qs_energies
            1 CP2K

 *******************************************************************************
 *   ___                                                                       *
 *  /   \                                                                      *
 * [ABORT]                                                                     *
 *  \___/     SCF run NOT converged. To continue the calculation regardless,   *
 *    |             please set the keyword IGNORE_CONVERGENCE_FAILURE.         *
 *  O/|                                                                        *
 * /| |                                                                        *
 * / \                                                            qs_scf.F:611 *
 *******************************************************************************


 ===== Routine Calling Stack ===== 

            3 scf_env_do_scf
            2 qs_energies
            1 CP2K

 *******************************************************************************
 *   ___                                                                       *
 *  /   \                                                                      *
 * [ABORT]                                                                     *
 *  \___/     SCF run NOT converged. To continue the calculation regardless,   *
 *    |             please set the keyword IGNORE_CONVERGENCE_FAILURE.         *
 *  O/|                                                                        *
 * /| |                                                                        *
 * / \                                                            qs_scf.F:611 *
 *******************************************************************************


 ===== Routine Calling Stack ===== 

            3 scf_env_do_scf
            2 qs_energies
            1 CP2K

 *******************************************************************************
 *   ___                                                                       *
 *  /   \                                                                      *
 * [ABORT]                                                                     *
 *  \___/     SCF run NOT converged. To continue the calculation regardless,   *
 *    |             please set the keyword IGNORE_CONVERGENCE_FAILURE.         *
 *  O/|                                                                        *
 * /| |                                                                        *
 * / \                                                            qs_scf.F:611 *
 *******************************************************************************


 ===== Routine Calling Stack ===== 

            3 scf_env_do_scf
            2 qs_energies
            1 CP2K

 *******************************************************************************
 *   ___                                                                       *
 *  /   \                                                                      *
 * [ABORT]                                                                     *
 *  \___/     SCF run NOT converged. To continue the calculation regardless,   *
 *    |             please set the keyword IGNORE_CONVERGENCE_FAILURE.         *
 *  O/|                                                                        *
 * /| |                                                                        *
 * / \                                                            qs_scf.F:611 *
 *******************************************************************************


 ===== Routine Calling Stack ===== 

            3 scf_env_do_scf
            2 qs_energies
            1 CP2K

 *******************************************************************************
 *   ___                                                                       *
 *  /   \                                                                      *
 * [ABORT]                                                                     *
 *  \___/     SCF run NOT converged. To continue the calculation regardless,   *
 *    |             please set the keyword IGNORE_CONVERGENCE_FAILURE.         *
 *  O/|                                                                        *
 * /| |                                                                        *
 * / \                                                            qs_scf.F:611 *
 *******************************************************************************


 ===== Routine Calling Stack ===== 

            3 scf_env_do_scf
            2 qs_energies
            1 CP2K

 *******************************************************************************
 *   ___                                                                       *
 *  /   \                                                                      *
 * [ABORT]                                                                     *
 *  \___/     SCF run NOT converged. To continue the calculation regardless,   *
 *    |             please set the keyword IGNORE_CONVERGENCE_FAILURE.         *
 *  O/|                                                                        *
 * /| |                                                                        *
 * / \                                                            qs_scf.F:611 *
 *******************************************************************************


 ===== Routine Calling Stack ===== 

            3 scf_env_do_scf
            2 qs_energies
            1 CP2K

 *******************************************************************************
 *   ___                                                                       *
 *  /   \                                                                      *
 * [ABORT]                                                                     *
 *  \___/     SCF run NOT converged. To continue the calculation regardless,   *
 *    |             please set the keyword IGNORE_CONVERGENCE_FAILURE.         *
 *  O/|                                                                        *
 * /| |                                                                        *
 * / \                                                            qs_scf.F:611 *
 *******************************************************************************


 ===== Routine Calling Stack ===== 

            3 scf_env_do_scf
            2 qs_energies
            1 CP2K

 *******************************************************************************
 *   ___                                                                       *
 *  /   \                                                                      *
 * [ABORT]                                                                     *
 *  \___/     SCF run NOT converged. To continue the calculation regardless,   *
 *    |             please set the keyword IGNORE_CONVERGENCE_FAILURE.         *
 *  O/|                                                                        *
 * /| |                                                                        *
 * / \                                                            qs_scf.F:611 *
 *******************************************************************************


 ===== Routine Calling Stack ===== 

            3 scf_env_do_scf
            2 qs_energies
            1 CP2K

 *******************************************************************************
 *   ___                                                                       *
 *  /   \                                                                      *
 * [ABORT]                                                                     *
 *  \___/     SCF run NOT converged. To continue the calculation regardless,   *
 *    |             please set the keyword IGNORE_CONVERGENCE_FAILURE.         *
 *  O/|                                                                        *
 * /| |                                                                        *
 * / \                                                            qs_scf.F:611 *
 *******************************************************************************


 ===== Routine Calling Stack ===== 

            3 scf_env_do_scf
            2 qs_energies
            1 CP2K

 *******************************************************************************
 *   ___                                                                       *
 *  /   \                                                                      *
 * [ABORT]                                                                     *
 *  \___/     SCF run NOT converged. To continue the calculation regardless,   *
 *    |             please set the keyword IGNORE_CONVERGENCE_FAILURE.         *
 *  O/|                                                                        *
 * /| |                                                                        *
 * / \                                                            qs_scf.F:611 *
 *******************************************************************************


 ===== Routine Calling Stack ===== 

            3 scf_env_do_scf
            2 qs_energies
            1 CP2K

 *******************************************************************************
 *   ___                                                                       *
 *  /   \                                                                      *
 * [ABORT]                                                                     *
 *  \___/     SCF run NOT converged. To continue the calculation regardless,   *
 *    |             please set the keyword IGNORE_CONVERGENCE_FAILURE.         *
 *  O/|                                                                        *
 * /| |                                                                        *
 * / \                                                            qs_scf.F:611 *
 *******************************************************************************


 ===== Routine Calling Stack ===== 

            3 scf_env_do_scf
            2 qs_energies
            1 CP2K
