 DBCSR| CPU Multiplication driver                                           BLAS (U)
 DBCSR| Multrec recursion limit                                              512 (U)
 DBCSR| Multiplication stack size                                           1000 (D)
 DBCSR| Maximum elements for images                                    UNLIMITED (U)
 DBCSR| Multiplicative factor virtual images                                   1 (U)
 DBCSR| Use multiplication densification                                       T (D)
 DBCSR| Multiplication size stacks                                             3 (U)
 DBCSR| Use memory pool for CPU allocation                                     F (U)
 DBCSR| Number of 3D layers                                               SINGLE (U)
 DBCSR| Use MPI memory allocation                                              F (U)
 DBCSR| Use RMA algorithm                                                      F (U)
 DBCSR| Use Communication thread                                               T (U)
 DBCSR| Communication thread load                                             75 (D)
 DBCSR| MPI: My process id                                                     0
 DBCSR| MPI: Number of processes                                              48
 DBCSR| OMP: Current number of threads                                         4
 DBCSR| OMP: Max number of threads                                             4
 DBCSR| Split modifier for TAS multiplication algorithm                  1.0E+00 (U)


  **** **** ******  **  PROGRAM STARTED AT               2025-03-19 01:14:26.361
 ***** ** ***  *** **   PROGRAM STARTED ON                          i04r10c03s08
 **    ****   ******    PROGRAM STARTED BY                               di38fab
 ***** **    ** ** **   PROGRAM PROCESS ID                                804642
  **** **  *******  **  PROGRAM STARTED IN /hppfs/scratch/04/di38fab/05_MOL/W4-1
                                           1+ALK/o2/aug-cc-pVDZ/GW+BSE

 CP2K| version string:                 CP2K version 2025.1 (Development Version)
 CP2K| source code revision number:                                  git:d2e611a
 CP2K| cp2kflags: omp libint fftw3 libxc parallel scalapack max_contr=4         
 CP2K| is freely available from                            https://www.cp2k.org/
 CP2K| Program compiled at                       Thu 06 Mar 2025 05:09:20 PM CET
 CP2K| Program compiled on                                               login02
 CP2K| Program compiled for                                        Supermuc-foss
 CP2K| Data directory path                  /hppfs/work/pn36zo/di38fab/cp2k/data
 CP2K| Input file name                                                    GW.inp

 GLOBAL| Force Environment number                                              1
 GLOBAL| Basis set file name            /hppfs/scratch/04/di38fab/04_TMD/BASIS_A
 GLOBAL| Potential file name            /hppfs/work/pn36zo/di38fab/cp2k/data/ALL
 GLOBAL| MM Potential file name                                     MM_POTENTIAL
 GLOBAL| Coordinate file name                                      __STD_INPUT__
 GLOBAL| Method name                                                        CP2K
 GLOBAL| Project name                                                       MoS2
 GLOBAL| Run type                                                         ENERGY
 GLOBAL| FFT library                                                       FFTW3
 GLOBAL| Diagonalization library                                       ScaLAPACK
 GLOBAL| DGEMM library                                                      BLAS
 GLOBAL| Orthonormality check for eigenvectors                          DISABLED
 GLOBAL| Matrix multiplication library                                 ScaLAPACK
 GLOBAL| All-to-all communication in single precision                          F
 GLOBAL| FFTs using library dependent lengths                                  F
 GLOBAL| Grid backend                                                       AUTO
 GLOBAL| Global print level                                               MEDIUM
 GLOBAL| MPI I/O enabled                                                       T
 GLOBAL| Total number of message passing processes                            48
 GLOBAL| Number of threads for this process                                    4
 GLOBAL| This output is from process                                           0
 GLOBAL| OpenMP stack size per thread (OMP_STACKSIZE)                    default
 GLOBAL| CPU model name             Intel(R) Xeon(R) Platinum 8174 CPU @ 3.10GHz

 MEMORY| system memory details [Kb]
 MEMORY|                        rank 0           min           max       average
 MEMORY| MemTotal             98436664      98436660      98436664      98436663
 MEMORY| MemFree              83814156      83814156      84030628      83931514
 MEMORY| Buffers                     0             0             0             0
 MEMORY| Cached                2422688       2396148       2422688       2404130
 MEMORY| Slab                  1238568       1207052       1241104       1230313
 MEMORY| SReclaimable           276080        262684        276080        270902
 MEMORY| MemLikelyFree        86512924      86512924      86691012      86606546


 *** Fundamental physical constants (SI units) ***

 *** Literature: B. J. Mohr and B. N. Taylor,
 ***             CODATA recommended values of the fundamental physical
 ***             constants: 2006, Web Version 5.1
 ***             http://physics.nist.gov/constants

 Speed of light in vacuum [m/s]                             2.99792458000000E+08
 Magnetic constant or permeability of vacuum [N/A**2]       1.25663706143592E-06
 Electric constant or permittivity of vacuum [F/m]          8.85418781762039E-12
 Planck constant (h) [J*s]                                  6.62606896000000E-34
 Planck constant (h-bar) [J*s]                              1.05457162825177E-34
 Elementary charge [C]                                      1.60217648700000E-19
 Electron mass [kg]                                         9.10938215000000E-31
 Electron g factor [ ]                                     -2.00231930436220E+00
 Proton mass [kg]                                           1.67262163700000E-27
 Fine-structure constant                                    7.29735253760000E-03
 Rydberg constant [1/m]                                     1.09737315685270E+07
 Avogadro constant [1/mol]                                  6.02214179000000E+23
 Boltzmann constant [J/K]                                   1.38065040000000E-23
 Atomic mass unit [kg]                                      1.66053878200000E-27
 Bohr radius [m]                                            5.29177208590000E-11

 *** Conversion factors ***

 [u] -> [a.u.]                                              1.82288848426455E+03
 [Angstrom] -> [Bohr] = [a.u.]                              1.88972613288564E+00
 [a.u.] = [Bohr] -> [Angstrom]                              5.29177208590000E-01
 [a.u.] -> [s]                                              2.41888432650478E-17
 [a.u.] -> [fs]                                             2.41888432650478E-02
 [a.u.] -> [J]                                              4.35974393937059E-18
 [a.u.] -> [N]                                              8.23872205491840E-08
 [a.u.] -> [K]                                              3.15774647902944E+05
 [a.u.] -> [kJ/mol]                                         2.62549961709828E+03
 [a.u.] -> [kcal/mol]                                       6.27509468713739E+02
 [a.u.] -> [Pa]                                             2.94210107994716E+13
 [a.u.] -> [bar]                                            2.94210107994716E+08
 [a.u.] -> [atm]                                            2.90362800883016E+08
 [a.u.] -> [eV]                                             2.72113838565563E+01
 [a.u.] -> [Hz]                                             6.57968392072181E+15
 [a.u.] -> [1/cm] (wave numbers)                            2.19474631370540E+05
 [a.u./Bohr**2] -> [1/cm]                                   5.14048714338585E+03
 

 CELL_TOP| Volume [angstrom^3]:                                     27000.000000
 CELL_TOP| Vector a [angstrom    30.000     0.000     0.000   |a| =    30.000000
 CELL_TOP| Vector b [angstrom     0.000    30.000     0.000   |b| =    30.000000
 CELL_TOP| Vector c [angstrom     0.000     0.000    30.000   |c| =    30.000000
 CELL_TOP| Angle (b,c), alpha [degree]:                                90.000000
 CELL_TOP| Angle (a,c), beta  [degree]:                                90.000000
 CELL_TOP| Angle (a,b), gamma [degree]:                                90.000000
 CELL_TOP| Numerically orthorhombic:                                         YES
 CELL_TOP| Periodicity                                                      NONE

 GENERATE|  Preliminary Number of Bonds generated:                             0
 GENERATE|  Achieved consistency in connectivity generation.

 CELL| Volume [angstrom^3]:                                         27000.000000
 CELL| Vector a [angstrom]:      30.000     0.000     0.000   |a| =    30.000000
 CELL| Vector b [angstrom]:       0.000    30.000     0.000   |b| =    30.000000
 CELL| Vector c [angstrom]:       0.000     0.000    30.000   |c| =    30.000000
 CELL| Angle (b,c), alpha [degree]:                                    90.000000
 CELL| Angle (a,c), beta  [degree]:                                    90.000000
 CELL| Angle (a,b), gamma [degree]:                                    90.000000
 CELL| Numerically orthorhombic:                                             YES
 CELL| Periodicity                                                          NONE

 CELL_REF| Volume [angstrom^3]:                                     27000.000000
 CELL_REF| Vector a [angstrom    30.000     0.000     0.000   |a| =    30.000000
 CELL_REF| Vector b [angstrom     0.000    30.000     0.000   |b| =    30.000000
 CELL_REF| Vector c [angstrom     0.000     0.000    30.000   |c| =    30.000000
 CELL_REF| Angle (b,c), alpha [degree]:                                90.000000
 CELL_REF| Angle (a,c), beta  [degree]:                                90.000000
 CELL_REF| Angle (a,b), gamma [degree]:                                90.000000
 CELL_REF| Numerically orthorhombic:                                         YES
 CELL_REF| Periodicity                                                      NONE

 *******************************************************************************
 *******************************************************************************
 **                                                                           **
 **     #####                         ##              ##                      **
 **    ##   ##            ##          ##              ##                      **
 **   ##     ##                       ##            ######                    **
 **   ##     ##  ##   ##  ##   #####  ##  ##   ####   ##    #####    #####    **
 **   ##     ##  ##   ##  ##  ##      ## ##   ##      ##   ##   ##  ##   ##   **
 **   ##  ## ##  ##   ##  ##  ##      ####     ###    ##   ######   ######    **
 **    ##  ###   ##   ##  ##  ##      ## ##      ##   ##   ##       ##        **
 **     #######   #####   ##   #####  ##  ##  ####    ##    #####   ##        **
 **           ##                                                    ##        **
 **                                                                           **
 **                                                ... make the atoms dance   **
 **                                                                           **
 **            Copyright (C) by CP2K developers group (2000-2025)             **
 **                      J. Chem. Phys. 152, 194103 (2020)                    **
 **                                                                           **
 *******************************************************************************

 DFT| Spin restricted Kohn-Sham (RKS) calculation                            RKS
 DFT| Multiplicity                                                             1
 DFT| Number of spin states                                                    1
 DFT| Charge                                                                   0
 DFT| Self-interaction correction (SIC)                                       NO
 DFT| Cutoffs: density                                              1.000000E-10
 DFT|          gradient                                             1.000000E-10
 DFT|          tau                                                  1.000000E-10
 DFT|          cutoff_smoothing_range                               0.000000E+00
 DFT| XC density smoothing                                                  NONE
 DFT| XC derivatives                                                          PW

 FUNCTIONAL| PBE:
 FUNCTIONAL| J.P.Perdew, K.Burke, M.Ernzerhof, Phys. Rev. Letter, vol. 77, n 18,
 FUNCTIONAL|  pp. 3865-3868, (1996)sx=0.750sc=1.000{spin unpolarized}           


 QS| Method:                                                                GAPW
 QS| Density plane wave grid type                        NON-SPHERICAL FULLSPACE
 QS| Number of grid levels:                                                    4
 QS| Density cutoff [a.u.]:                                                250.0
 QS| Multi grid cutoff [a.u.]: 1) grid level                               250.0
 QS|                           2) grid level                                83.3
 QS|                           3) grid level                                27.8
 QS|                           4) grid level                                 9.3
 QS| Grid level progression factor:                                          3.0
 QS| Relative density cutoff [a.u.]:                                        50.0
 QS| Interaction thresholds: eps_pgf_orb:                                1.0E-12
 QS|                         eps_filter_matrix:                          0.0E+00
 QS|                         eps_core_charge:                            1.0E-14
 QS|                         eps_rho_gspace:                             1.0E-12
 QS|                         eps_rho_rspace:                             1.0E-12
 QS|                         eps_gvg_rspace:                             1.0E-06
 QS|                         eps_ppl:                                    1.0E-02
 QS|                         eps_ppnl:                                   1.0E-08
 QS| GAPW|      One center basis from orbital basis primitives
 QS| GAPW|                   eps_fit:                                    1.0E-04
 QS| GAPW|                   eps_iso:                                    1.0E-12
 QS| GAPW|                   eps_svd:                                    1.0E-08
 QS| GAPW|                   eps_cpc:                                    1.0E-12
 QS| GAPW|   atom-r-grid: quadrature:                                     GC_LOG
 QS| GAPW|      atom-s-grid:  max l :                                          4
 QS| GAPW|      max_l_rho0 :                                                   2


 ATOMIC KIND INFORMATION

  1. Atomic kind: O                                     Number of atoms:       2

     Orbital Basis Set                                               aug-cc-pVDZ

       Number of orbital shell sets:                                           6
       Number of orbital shells:                                               9
       Number of primitive Cartesian functions:                               17
       Number of Cartesian basis functions:                                   25
       Number of spherical basis functions:                                   23
       Norm type:                                                              2

       Normalised Cartesian orbitals:

                        Set   Shell   Orbital            Exponent    Coefficient

                          1       1    1px               0.068560       0.050007
                          1       1    1py               0.068560       0.050007
                          1       1    1pz               0.068560       0.050007

                          2       1    1s                0.078960       0.106161

                          3       1    1px              17.700000       2.226162
                                                         3.854000       1.761976
                                                         1.046000       0.767079
                                                         0.275300       0.130905
                          3       1    1py              17.700000       2.226162
                                                         3.854000       1.761976
                                                         1.046000       0.767079
                                                         0.275300       0.130905
                          3       1    1pz              17.700000       2.226162
                                                         3.854000       1.761976
                                                         1.046000       0.767079
                                                         0.275300       0.130905

                          3       2    2px              17.700000       0.000000
                                                         3.854000       0.000000
                                                         1.046000       0.000000
                                                         0.275300       0.284248
                          3       2    2py              17.700000       0.000000
                                                         3.854000       0.000000
                                                         1.046000       0.000000
                                                         0.275300       0.284248
                          3       2    2pz              17.700000       0.000000
                                                         3.854000       0.000000
                                                         1.046000       0.000000
                                                         0.275300       0.284248

                          4       1    1s            11720.000000       0.569986
                                                      1759.000000       1.058881
                                                       400.800000       1.777168
                                                       113.700000       2.600710
                                                        37.030000       3.028357
                                                        13.270000       2.223504
                                                         5.025000       0.648119
                                                         1.013000       0.011124
                                                         0.302300      -0.000751

                          4       2    2s            11720.000000      -0.128448
                                                      1759.000000      -0.244491
                                                       400.800000      -0.400097
                                                       113.700000      -0.638166
                                                        37.030000      -0.758785
                                                        13.270000      -0.819649
                                                         5.025000      -0.279757
                                                         1.013000       0.401106
                                                         0.302300       0.166422

                          4       3    3s            11720.000000       0.000000
                                                      1759.000000       0.000000
                                                       400.800000       0.000000
                                                       113.700000       0.000000
                                                        37.030000       0.000000
                                                        13.270000       0.000000
                                                         5.025000       0.000000
                                                         1.013000       0.000000
                                                         0.302300       0.290562

                          5       1    1dx2              0.332000       0.239002
                          5       1    1dxy              0.332000       0.413963
                          5       1    1dxz              0.332000       0.413963
                          5       1    1dy2              0.332000       0.239002
                          5       1    1dyz              0.332000       0.413963
                          5       1    1dz2              0.332000       0.239002

                          6       1    1dx2              1.185000       2.215218
                          6       1    1dxy              1.185000       3.836871
                          6       1    1dxz              1.185000       3.836871
                          6       1    1dy2              1.185000       2.215218
                          6       1    1dyz              1.185000       3.836871
                          6       1    1dz2              1.185000       2.215218

     RI Auxiliary Basis Set                                    aug-cc-pVDZ-OPTRI

       Number of orbital shell sets:                                          17
       Number of orbital shells:                                              17
       Number of primitive Cartesian functions:                               17
       Number of Cartesian basis functions:                                   88
       Number of spherical basis functions:                                   69
       Norm type:                                                              2

       Normalised Cartesian orbitals:

                        Set   Shell   Orbital            Exponent    Coefficient

                          1       1    1px               0.102282       0.082450
                          1       1    1py               0.102282       0.082450
                          1       1    1pz               0.102282       0.082450

                          2       1    1s                0.117785       0.143294

                          3       1    1px               0.412399       0.471072
                          3       1    1py               0.412399       0.471072
                          3       1    1pz               0.412399       0.471072

                          4       1    1fx3              0.507566       0.320120
                          4       1    1fx2y             0.507566       0.715810
                          4       1    1fx2z             0.507566       0.715810
                          4       1    1fxy2             0.507566       0.715810
                          4       1    1fxyz             0.507566       1.239819
                          4       1    1fxz2             0.507566       0.715810
                          4       1    1fy3              0.507566       0.320120
                          4       1    1fy2z             0.507566       0.715810
                          4       1    1fyz2             0.507566       0.715810
                          4       1    1fz3              0.507566       0.320120

                          5       1    1dx2              0.533937       0.548930
                          5       1    1dxy              0.533937       0.950775
                          5       1    1dxz              0.533937       0.950775
                          5       1    1dy2              0.533937       0.548930
                          5       1    1dyz              0.533937       0.950775
                          5       1    1dz2              0.533937       0.548930

                          6       1    1px               0.892559       1.236620
                          6       1    1py               0.892559       1.236620
                          6       1    1pz               0.892559       1.236620

                          7       1    1s                0.910384       0.664245

                          8       1    1fx3              1.557922       3.991924
                          8       1    1fx2y             1.557922       8.926214
                          8       1    1fx2z             1.557922       8.926214
                          8       1    1fxy2             1.557922       8.926214
                          8       1    1fxyz             1.557922      15.460656
                          8       1    1fxz2             1.557922       8.926214
                          8       1    1fy3              1.557922       3.991924
                          8       1    1fy2z             1.557922       8.926214
                          8       1    1fyz2             1.557922       8.926214
                          8       1    1fz3              1.557922       3.991924

                          9       1    1gx4              1.763142       5.293287
                          9       1    1gx3y             1.763142      14.004722
                          9       1    1gx3z             1.763142      14.004722
                          9       1    1gx2y2            1.763142      18.080018
                          9       1    1gx2yz            1.763142      31.315511
                          9       1    1gx2z2            1.763142      18.080018
                          9       1    1gxy3             1.763142      14.004722
                          9       1    1gxy2z            1.763142      31.315511
                          9       1    1gxyz2            1.763142      31.315511
                          9       1    1gxz3             1.763142      14.004722
                          9       1    1gy4              1.763142       5.293287
                          9       1    1gy3z             1.763142      14.004722
                          9       1    1gy2z2            1.763142      18.080018
                          9       1    1gyz3             1.763142      14.004722
                          9       1    1gz4              1.763142       5.293287

                         10       1    1px               1.931778       3.246285
                         10       1    1py               1.931778       3.246285
                         10       1    1pz               1.931778       3.246285

                         11       1    1s                3.089291       1.660750

                         12       1    1dx2              3.533545      14.989186
                         12       1    1dxy              3.533545      25.962032
                         12       1    1dxz              3.533545      25.962032
                         12       1    1dy2              3.533545      14.989186
                         12       1    1dyz              3.533545      25.962032
                         12       1    1dz2              3.533545      14.989186

                         13       1    1px               4.180971       8.521902
                         13       1    1py               4.180971       8.521902
                         13       1    1pz               4.180971       8.521902

                         14       1    1fx3              4.802730      50.269300
                         14       1    1fx2y             4.802730     112.405572
                         14       1    1fx2z             4.802730     112.405572
                         14       1    1fxy2             4.802730     112.405572
                         14       1    1fxyz             4.802730     194.692161
                         14       1    1fxz2             4.802730     112.405572
                         14       1    1fy3              4.802730      50.269300
                         14       1    1fy2z             4.802730     112.405572
                         14       1    1fyz2             4.802730     112.405572
                         14       1    1fz3              4.802730      50.269300

                         15       1    1dx2              6.710063      46.044844
                         15       1    1dxy              6.710063      79.752009
                         15       1    1dxz              6.710063      79.752009
                         15       1    1dy2              6.710063      46.044844
                         15       1    1dyz              6.710063      79.752009
                         15       1    1dz2              6.710063      46.044844

                         16       1    1s               10.483182       4.152216

                         17       1    1dx2             12.742147     141.443836
                         17       1    1dxy             12.742147     244.987910
                         17       1    1dxz             12.742147     244.987910
                         17       1    1dy2             12.742147     141.443836
                         17       1    1dyz             12.742147     244.987910
                         17       1    1dz2             12.742147     141.443836

       Atomic covalent radius [Angstrom]:                                  0.730

       Atomic van der Waals radius [Angstrom]:                             1.520

     The atoms of this atomic kind are PAW atoms (GAPW):
       Hard Gaussian function radius:                                      1.512
       Rho0 radius:                                                        1.512
       Maximum GTO radius used for PAW projector construction:            24.566

     GAPW Soft Basis Set                                        aug-cc-pVDZ_soft

       Number of orbital shell sets:                                           6
       Number of orbital shells:                                               9
       Number of primitive Cartesian functions:                                9
       Number of Cartesian basis functions:                                   25
       Number of spherical basis functions:                                   23
       Norm type:                                                              2

       Normalised Cartesian orbitals:

                        Set   Shell   Orbital            Exponent    Coefficient

                          1       1    1px               0.068560       0.050007
                          1       1    1py               0.068560       0.050007
                          1       1    1pz               0.068560       0.050007

                          2       1    1s                0.078960       0.106161

                          3       1    1px               3.854000       1.761976
                                                         1.046000       0.767079
                                                         0.275300       0.130905
                          3       1    1py               3.854000       1.761976
                                                         1.046000       0.767079
                                                         0.275300       0.130905
                          3       1    1pz               3.854000       1.761976
                                                         1.046000       0.767079
                                                         0.275300       0.130905

                          3       2    2px               3.854000       0.000000
                                                         1.046000       0.000000
                                                         0.275300       0.284248
                          3       2    2py               3.854000       0.000000
                                                         1.046000       0.000000
                                                         0.275300       0.284248
                          3       2    2pz               3.854000       0.000000
                                                         1.046000       0.000000
                                                         0.275300       0.284248

                          4       1    1s                1.013000       0.011124
                                                         0.302300      -0.000751

                          4       2    2s                1.013000       0.401106
                                                         0.302300       0.166422

                          4       3    3s                1.013000       0.000000
                                                         0.302300       0.290562

                          5       1    1dx2              0.332000       0.239002
                          5       1    1dxy              0.332000       0.413963
                          5       1    1dxz              0.332000       0.413963
                          5       1    1dy2              0.332000       0.239002
                          5       1    1dyz              0.332000       0.413963
                          5       1    1dz2              0.332000       0.239002

                          6       1    1dx2              1.185000       2.215218
                          6       1    1dxy              1.185000       3.836871
                          6       1    1dxz              1.185000       3.836871
                          6       1    1dy2              1.185000       2.215218
                          6       1    1dyz              1.185000       3.836871
                          6       1    1dz2              1.185000       2.215218

     AE Potential information for                                            ALL

       Description:                                       All-electron potential
                                          Krack, Parrinello, PCCP 2, 2105 (2000)

       Gaussian exponent of the core charge distribution:               8.154466
       Electronic configuration (s p d ...):                           4   4   0


 MOLECULE KIND INFORMATION


 All atoms are their own molecule, skipping detailed information


 TOTAL NUMBERS AND MAXIMUM NUMBERS

  Total number of            - Atomic kinds:                                   1
                             - Atoms:                                          2
                             - Shell sets:                                    12
                             - Shells:                                        18
                             - Primitive Cartesian functions:                 34
                             - Cartesian basis functions:                     50
                             - Spherical basis functions:                     46

  Maximum angular momentum of the orbital basis functions:                     2


 MODULE QUICKSTEP: ATOMIC COORDINATES IN ANGSTROM

   Atom Kind Element         X             Y             Z       Z(eff)     Mass
      1    1 O     8     15.603900     15.000000     15.000000   8.0000  15.9994
      2    1 O     8     14.396100     15.000000     15.000000   8.0000  15.9994



 SCF PARAMETERS         Density guess:                                    ATOMIC
                        --------------------------------------------------------
                        max_scf:                                             500
                        max_scf_history:                                       0
                        max_diis:                                              4
                        --------------------------------------------------------
                        eps_scf:                                        1.00E-06
                        eps_scf_history:                                0.00E+00
                        eps_diis:                                       1.00E-01
                        eps_eigval:                                     1.00E-05
                        --------------------------------------------------------
                        level_shift [a.u.]:                             0.000000
                        added MOs                                        38    0
                        --------------------------------------------------------
                        Mixing method:                            BROYDEN_MIXING
                                                charge density mixing in g-space
                        --------------------------------------------------------
                        No outer SCF

 PW_GRID| Information for grid number                                          1
 PW_GRID| Grid distributed over                                    48 processors
 PW_GRID| Real space group dimensions                                    48    1
 PW_GRID| the grid is blocked:                                                NO
 PW_GRID| Cutoff [a.u.]                                                    250.0
 PW_GRID| spherical cutoff:                                                   NO
 PW_GRID|   Bounds   1           -202     202                Points:         405
 PW_GRID|   Bounds   2           -202     202                Points:         405
 PW_GRID|   Bounds   3           -202     202                Points:         405
 PW_GRID| Volume element (a.u.^3)  0.2743E-02     Volume (a.u.^3)    182205.0337
 PW_GRID| Grid span                                                    FULLSPACE
 PW_GRID|   Distribution                         Average         Max         Min
 PW_GRID|   G-Vectors                          1383960.9     1384290     1383885
 PW_GRID|   G-Rays                                3417.2        3418        3417
 PW_GRID|   Real Space Points                  1383960.9     1476225     1312200

 PW_GRID| Information for grid number                                          2
 PW_GRID| Number of the reference grid                                         1
 PW_GRID| Grid distributed over                                    48 processors
 PW_GRID| Real space group dimensions                                    48    1
 PW_GRID| the grid is blocked:                                                NO
 PW_GRID| Cutoff [a.u.]                                                     83.3
 PW_GRID| spherical cutoff:                                                   NO
 PW_GRID|   Bounds   1           -120     119                Points:         240
 PW_GRID|   Bounds   2           -120     119                Points:         240
 PW_GRID|   Bounds   3           -120     119                Points:         240
 PW_GRID| Volume element (a.u.^3)  0.1318E-01     Volume (a.u.^3)    182205.0337
 PW_GRID| Grid span                                                    FULLSPACE
 PW_GRID|   Distribution                         Average         Max         Min
 PW_GRID|   G-Vectors                           288000.0      288720      287520
 PW_GRID|   G-Rays                                1200.0        1203        1198
 PW_GRID|   Real Space Points                   288000.0      288000      288000

 PW_GRID| Information for grid number                                          3
 PW_GRID| Number of the reference grid                                         1
 PW_GRID| Grid distributed over                                    48 processors
 PW_GRID| Real space group dimensions                                    48    1
 PW_GRID| the grid is blocked:                                                NO
 PW_GRID| Cutoff [a.u.]                                                     27.8
 PW_GRID| spherical cutoff:                                                   NO
 PW_GRID|   Bounds   1            -67      67                Points:         135
 PW_GRID|   Bounds   2            -67      67                Points:         135
 PW_GRID|   Bounds   3            -67      67                Points:         135
 PW_GRID| Volume element (a.u.^3)  0.7406E-01     Volume (a.u.^3)    182205.0337
 PW_GRID| Grid span                                                    FULLSPACE
 PW_GRID|   Distribution                         Average         Max         Min
 PW_GRID|   G-Vectors                            51257.8       51570       51030
 PW_GRID|   G-Rays                                 379.7         382         378
 PW_GRID|   Real Space Points                    51257.8       54675       36450

 PW_GRID| Information for grid number                                          4
 PW_GRID| Number of the reference grid                                         1
 PW_GRID| Grid distributed over                                    48 processors
 PW_GRID| Real space group dimensions                                    48    1
 PW_GRID| the grid is blocked:                                                NO
 PW_GRID| Cutoff [a.u.]                                                      9.3
 PW_GRID| spherical cutoff:                                                   NO
 PW_GRID|   Bounds   1            -40      39                Points:          80
 PW_GRID|   Bounds   2            -40      39                Points:          80
 PW_GRID|   Bounds   3            -40      39                Points:          80
 PW_GRID| Volume element (a.u.^3)  0.3559         Volume (a.u.^3)    182205.0337
 PW_GRID| Grid span                                                    FULLSPACE
 PW_GRID|   Distribution                         Average         Max         Min
 PW_GRID|   G-Vectors                            10666.7       10800       10560
 PW_GRID|   G-Rays                                 133.3         135         132
 PW_GRID|   Real Space Points                    10666.7       12800        6400

 POISSON| Solver                                                         WAVELET
 POISSON| Wavelet| Scaling function                                           40
 POISSON| Periodicity                                                       NONE

 RS_GRID| Information for grid number                                          1
 RS_GRID|   Bounds   1           -202     202                Points:         405
 RS_GRID|   Bounds   2           -202     202                Points:         405
 RS_GRID|   Bounds   3           -202     202                Points:         405
 RS_GRID| Real space distribution over                                  3 groups
 RS_GRID| Real space distribution along direction                              1
 RS_GRID| Border size                                                         33
 RS_GRID| Real space distribution over                                  4 groups
 RS_GRID| Real space distribution along direction                              2
 RS_GRID| Border size                                                         33
 RS_GRID| Real space distribution over                                  4 groups
 RS_GRID| Real space distribution along direction                              3
 RS_GRID| Border size                                                         33
 RS_GRID|   Distribution                         Average         Max         Min
 RS_GRID|   Planes                                 201.0         201         201
 RS_GRID|   Distribution                         Average         Max         Min
 RS_GRID|   Planes                                 167.2         168         167
 RS_GRID|   Distribution                         Average         Max         Min
 RS_GRID|   Planes                                 167.2         168         167

 RS_GRID| Information for grid number                                          2
 RS_GRID|   Bounds   1           -120     119                Points:         240
 RS_GRID|   Bounds   2           -120     119                Points:         240
 RS_GRID|   Bounds   3           -120     119                Points:         240
 RS_GRID| Real space distribution over                                  3 groups
 RS_GRID| Real space distribution along direction                              1
 RS_GRID| Border size                                                         35
 RS_GRID| Real space distribution over                                  4 groups
 RS_GRID| Real space distribution along direction                              2
 RS_GRID| Border size                                                         35
 RS_GRID| Real space distribution over                                  4 groups
 RS_GRID| Real space distribution along direction                              3
 RS_GRID| Border size                                                         35
 RS_GRID|   Distribution                         Average         Max         Min
 RS_GRID|   Planes                                 150.0         150         150
 RS_GRID|   Distribution                         Average         Max         Min
 RS_GRID|   Planes                                 130.0         130         130
 RS_GRID|   Distribution                         Average         Max         Min
 RS_GRID|   Planes                                 130.0         130         130

 RS_GRID| Information for grid number                                          3
 RS_GRID|   Bounds   1            -67      67                Points:         135
 RS_GRID|   Bounds   2            -67      67                Points:         135
 RS_GRID|   Bounds   3            -67      67                Points:         135
 RS_GRID| Real space fully replicated
 RS_GRID| Group size                                                           1

 RS_GRID| Information for grid number                                          4
 RS_GRID|   Bounds   1            -40      39                Points:          80
 RS_GRID|   Bounds   2            -40      39                Points:          80
 RS_GRID|   Bounds   3            -40      39                Points:          80
 RS_GRID| Real space fully replicated
 RS_GRID| Group size                                                           1

  HFX_INFO| Replica ID:                                                        1
  HFX_INFO| FRACTION:                                               0.2500000000
  HFX_INFO| Interaction Potential:                                       COULOMB
  HFX_INFO| EPS_SCHWARZ:                                                 1.0E-10
  HFX_INFO| EPS_SCHWARZ_FORCES                                           1.0E-08
  HFX_INFO| EPS_STORAGE_SCALING:                                         1.0E+00
  HFX_INFO| NBINS:                                                            64
  HFX_INFO| BLOCK_SIZE:                                                        1
  HFX_INFO| Number of periodic shells considered:                           NONE
  HFX_INFO| Number of periodic cells considered:                            NONE

 
 RI-RPA| using GPW style
 

 OVERLAP MATRIX CONDITION NUMBER
 1-Norm Condition Number (Estimate)
   CN : |A|*|A^-1|:  6.454E+000 *  2.103E+003   = 1.357E+004  Log(1-CN):  4.1326
 1-Norm and 2-Norm Condition Numbers using Diagonalization
   CN : |A|*|A^-1|:  6.454E+000 *  2.103E+003   = 1.357E+004  Log(1-CN):  4.1326
   CN : max/min ev:  4.686E+000 /  6.781E-004   = 6.910E+003  Log(2-CN):  3.8395

 Number of electrons:                                                         16
 Number of occupied orbitals:                                                  8
 Number of molecular orbitals:                                                46

 Number of orbital functions:                                                 46
 Number of independent orbital functions:                                     46

 Extrapolation method: initial_guess

 Atomic guess: The first density matrix is obtained in terms of atomic orbitals
               and electronic configurations assigned to each atomic kind

 Guess for atomic kind: O

 Electronic structure
    Total number of core electrons                                          0.00
    Total number of valence electrons                                       8.00
    Total number of electrons                                               8.00
    Multiplicity                                                   not specified
    S      2.00  2.00
    P      4.00


 *******************************************************************************
                  Iteration          Convergence                     Energy [au]
 *******************************************************************************
                          1        0.684364                     -74.339089617110
                          2        0.725475                     -74.331768383214
                          3        0.164048E-01                 -74.445010329461
                          4        0.133197E-02                 -74.445102079973
                          5        0.433662E-04                 -74.445102400705
                          6        0.870320E-06                 -74.445102401090

 Energy components [Hartree]           Total Energy ::          -74.445102401090
                                        Band Energy ::          -40.633506884525
                                     Kinetic Energy ::           74.418788801225
                                   Potential Energy ::         -148.863891202315
                                      Virial (-V/T) ::            2.000353588123
                                        Core Energy ::         -102.956409295290
                                          XC Energy ::           -7.773368920479
                                     Coulomb Energy ::           36.284675814680

 Orbital energies  State     L     Occupation   Energy[a.u.]          Energy[eV]

                       1     0          2.000     -18.768159         -510.707575
                       2     0          2.000      -0.873851          -23.778707

                       1     1          4.000      -0.337372           -9.180347


 Total Electron Density at R=0:                                       298.043610
 Re-scaling the density matrix to get the right number of electrons
                  # Electrons              Trace(P)               Scaling factor
                           16                16.000                        1.000


 SCF WAVEFUNCTION OPTIMIZATION

  Step     Update method      Time    Convergence         Total energy    Change
  ------------------------------------------------------------------------------

  HFX_MEM_INFO| Est. max. program size before HFX [MiB]:                    1301
  HFX_MEM_INFO| Number of cart. primitive ERI's calculated:             10719047
  HFX_MEM_INFO| Number of sph. ERI's calculated:                         1679046
  HFX_MEM_INFO| Number of sph. ERI's stored in-core:                     1679046
  HFX_MEM_INFO| Number of sph. ERI's stored on disk:                           0
  HFX_MEM_INFO| Number of sph. ERI's calculated on the fly:                    0
  HFX_MEM_INFO| Total memory consumption ERI's RAM [MiB]:                      8
  HFX_MEM_INFO| Whereof max-vals [MiB]:                                        2
  HFX_MEM_INFO| Total compression factor ERI's RAM:                         1.81
  HFX_MEM_INFO| Total memory consumption ERI's disk [MiB]:                     0
  HFX_MEM_INFO| Total compression factor ERI's disk:                        0.00
  HFX_MEM_INFO| Size of density/Fock matrix [MiB]:                             0
  HFX_MEM_INFO| Size of buffers [MiB]:                                         0
  HFX_MEM_INFO| Est. max. program size after HFX  [MiB]:                    1795

     1 NoMix/Diag. 0.10E+00    3.9     0.96891181      -150.3755752739 -1.50E+02
     2 Broy./Diag. 0.10E+00    2.5     0.03615309      -149.9775849701  3.98E-01
     3 Broy./Diag. 0.10E+00    2.6     0.06952885      -150.0689909417 -9.14E-02
     4 Broy./Diag. 0.10E+00    2.6     0.00921294      -150.3204724869 -2.51E-01
     5 Broy./Diag. 0.10E+00    2.6     0.00299272      -150.3003437991  2.01E-02
     6 Broy./Diag. 0.10E+00    2.6     0.01506792      -150.1611817009  1.39E-01
     7 Broy./Diag. 0.10E+00    2.7     0.00180376      -150.0674366608  9.37E-02
     8 Broy./Diag. 0.10E+00    2.7     0.00155255      -150.0747184672 -7.28E-03
     9 Broy./Diag. 0.10E+00    2.8     0.00472311      -150.1240414566 -4.93E-02
    10 Broy./Diag. 0.10E+00    2.8     0.00052013      -150.1535029504 -2.95E-02
    11 Broy./Diag. 0.10E+00    2.8     0.00302510      -150.1289488438  2.46E-02
    12 Broy./Diag. 0.10E+00    2.8     0.00145595      -150.1162197924  1.27E-02
    13 Broy./Diag. 0.10E+00    2.8     0.00033304      -150.1197708448 -3.55E-03
    14 Broy./Diag. 0.10E+00    2.8     0.00121988      -150.1253819528 -5.61E-03
    15 Broy./Diag. 0.10E+00    2.8     0.00083610      -150.1331798582 -7.80E-03
    16 Broy./Diag. 0.10E+00    2.8     0.00026768      -150.1359378682 -2.76E-03
    17 Broy./Diag. 0.10E+00    2.8     0.00084663      -150.1320173726  3.92E-03
    18 Broy./Diag. 0.10E+00    2.8     0.00012122      -150.1301884478  1.83E-03
    19 Broy./Diag. 0.10E+00    2.9     0.00014719      -150.1311478489 -9.59E-04
    20 Broy./Diag. 0.10E+00    2.8     0.00043015      -150.1314452056 -2.97E-04
    21 Broy./Diag. 0.10E+00    2.8     0.00014437      -150.1314546091 -9.40E-06
    22 Broy./Diag. 0.10E+00    2.8     0.00011887      -150.1322935187 -8.39E-04
    23 Broy./Diag. 0.10E+00    2.8     0.00003646      -150.1327297558 -4.36E-04
    24 Broy./Diag. 0.10E+00    2.8     0.00007240      -150.1325097650  2.20E-04
    25 Broy./Diag. 0.10E+00    2.8     0.00008230      -150.1320708608  4.39E-04
    26 Broy./Diag. 0.10E+00    2.8     0.00009176      -150.1315975162  4.73E-04
    27 Broy./Diag. 0.10E+00    2.8     0.00009559      -150.1316365052 -3.90E-05
    28 Broy./Diag. 0.10E+00    2.8     0.00007262      -150.1317142757 -7.78E-05
    29 Broy./Diag. 0.10E+00    2.9     0.00005528      -150.1315045440  2.10E-04
    30 Broy./Diag. 0.10E+00    2.8     0.00001417      -150.1313797311  1.25E-04
    31 Broy./Diag. 0.10E+00    2.8     0.00001635      -150.1313551421  2.46E-05
    32 Broy./Diag. 0.10E+00    2.9     0.00003030      -150.1313312625  2.39E-05
    33 Broy./Diag. 0.10E+00    2.8     0.00004423      -150.1312897795  4.15E-05
    34 Broy./Diag. 0.10E+00    2.9     0.00006670      -150.1312869273  2.85E-06
    35 Broy./Diag. 0.10E+00    2.8     0.00010199      -150.1312772667  9.66E-06
    36 Broy./Diag. 0.10E+00    2.9     0.00016420      -150.1312577747  1.95E-05
    37 Broy./Diag. 0.10E+00    2.9     0.00024814      -150.1312036746  5.41E-05
    38 Broy./Diag. 0.10E+00    2.8     0.00038339      -150.1311827728  2.09E-05
    39 Broy./Diag. 0.10E+00    2.8     0.00060256      -150.1311778178  4.95E-06
    40 Broy./Diag. 0.10E+00    2.9     0.00095146      -150.1311604662  1.74E-05
    41 Broy./Diag. 0.10E+00    2.8     0.00149864      -150.1311529300  7.54E-06
    42 Broy./Diag. 0.10E+00    2.9     0.00236951      -150.1311897510 -3.68E-05
    43 Broy./Diag. 0.10E+00    2.8     0.00373427      -150.1312613246 -7.16E-05
    44 Broy./Diag. 0.10E+00    2.9     0.00588035      -150.1313146406 -5.33E-05
    45 Broy./Diag. 0.10E+00    2.8     0.00927400      -150.1313599864 -4.53E-05
    46 Broy./Diag. 0.10E+00    2.8     0.01462629      -150.1312728157  8.72E-05
    47 Broy./Diag. 0.10E+00    2.8     0.02303120      -150.1311394745  1.33E-04
    48 Broy./Diag. 0.10E+00    2.8     0.03619581      -150.1309540601  1.85E-04
    49 Broy./Diag. 0.10E+00    2.8     0.05636397      -150.1305476085  4.06E-04
    50 Broy./Diag. 0.10E+00    2.9     0.08536897      -150.1298641017  6.84E-04
    51 Broy./Diag. 0.10E+00    2.8     0.12078569      -150.1284941838  1.37E-03
    52 Broy./Diag. 0.10E+00    2.8     0.14718219      -150.1253092424  3.18E-03
    53 Broy./Diag. 0.10E+00    2.9     0.17021084      -150.1185820473  6.73E-03
    54 Broy./Diag. 0.10E+00    2.9     0.21811169      -150.1070942822  1.15E-02
    55 Broy./Diag. 0.10E+00    2.8     0.21231170      -150.0917907823  1.53E-02
    56 Broy./Diag. 0.10E+00    2.8     0.16823760      -150.0765135561  1.53E-02
    57 Broy./Diag. 0.10E+00    2.8     0.11682062      -150.0643615541  1.22E-02
    58 Broy./Diag. 0.10E+00    2.9     0.08181694      -150.0558991083  8.46E-03
    59 Broy./Diag. 0.10E+00    2.8     0.06957506      -150.0506281599  5.27E-03
    60 Broy./Diag. 0.10E+00    2.9     0.05551502      -150.0476332956  2.99E-03
    61 Broy./Diag. 0.10E+00    2.9     0.04294121      -150.0460042576  1.63E-03
    62 Broy./Diag. 0.10E+00    2.9     0.03333222      -150.0457081460  2.96E-04
    63 Broy./Diag. 0.10E+00    2.9     0.02784852      -150.0484774175 -2.77E-03
    64 Broy./Diag. 0.10E+00    2.9     0.02118999      -150.0413989944  7.08E-03
    65 Broy./Diag. 0.10E+00    2.8     0.02759708      -150.0257151574  1.57E-02
    66 Broy./Diag. 0.10E+00    2.9     0.01208562      -150.0466406514 -2.09E-02
    67 Broy./Diag. 0.10E+00    2.9     0.01130204      -150.0752876426 -2.86E-02
    68 Broy./Diag. 0.10E+00    2.9     0.01748812      -150.0351136099  4.02E-02
    69 Broy./Diag. 0.10E+00    2.9     0.02269945      -149.8907393595  1.44E-01
    70 Broy./Diag. 0.10E+00    2.9     0.08712734      -149.9088175108 -1.81E-02
    71 Broy./Diag. 0.10E+00    3.0     0.07648024      -150.0919563155 -1.83E-01
    72 Broy./Diag. 0.10E+00    2.9     0.05328652      -150.1993087451 -1.07E-01
    73 Broy./Diag. 0.10E+00    2.9     0.09698890      -150.3025715321 -1.03E-01
    74 Broy./Diag. 0.10E+00    2.9     0.08049136      -150.3748699332 -7.23E-02
    75 Broy./Diag. 0.10E+00    2.8     0.11202648      -150.4301052073 -5.52E-02
    76 Broy./Diag. 0.10E+00    2.8     0.15634928      -150.3517055434  7.84E-02
    77 Broy./Diag. 0.10E+00    2.8     0.17568391      -150.2266796869  1.25E-01
    78 Broy./Diag. 0.10E+00    2.9     0.21281078      -150.1609371647  6.57E-02
    79 Broy./Diag. 0.10E+00    2.8     0.16336357      -150.1431164269  1.78E-02
    80 Broy./Diag. 0.10E+00    2.9     0.13793664      -150.1213285115  2.18E-02
    81 Broy./Diag. 0.10E+00    2.8     0.13588515      -150.1060882245  1.52E-02
    82 Broy./Diag. 0.10E+00    2.9     0.16434621      -150.0790422700  2.70E-02
    83 Broy./Diag. 0.10E+00    2.8     0.15319357      -150.0579787170  2.11E-02
    84 Broy./Diag. 0.10E+00    2.9     0.10057254      -150.0964948501 -3.85E-02
    85 Broy./Diag. 0.10E+00    2.8     0.05918411      -150.1580165434 -6.15E-02
    86 Broy./Diag. 0.10E+00    2.8     0.03726455      -150.1964045635 -3.84E-02
    87 Broy./Diag. 0.10E+00    2.8     0.02895393      -150.1938623653  2.54E-03
    88 Broy./Diag. 0.10E+00    2.8     0.03000101      -150.1815632534  1.23E-02
    89 Broy./Diag. 0.10E+00    2.8     0.03485006      -150.1548549527  2.67E-02
    90 Broy./Diag. 0.10E+00    2.8     0.04654281      -150.1430034348  1.19E-02
    91 Broy./Diag. 0.10E+00    2.9     0.07217135      -150.1377586628  5.24E-03
    92 Broy./Diag. 0.10E+00    2.9     0.09995693      -150.1376321546  1.27E-04
    93 Broy./Diag. 0.10E+00    2.8     0.12069036      -150.1379059475 -2.74E-04
    94 Broy./Diag. 0.10E+00    2.8     0.17514066      -150.1332770726  4.63E-03
    95 Broy./Diag. 0.10E+00    2.9     0.19793988      -150.1238894458  9.39E-03
    96 Broy./Diag. 0.10E+00    2.8     0.17185244      -150.1135944968  1.03E-02
    97 Broy./Diag. 0.10E+00    2.8     0.14306001      -150.1039198142  9.67E-03
    98 Broy./Diag. 0.10E+00    2.8     0.12093551      -150.0937542360  1.02E-02
    99 Broy./Diag. 0.10E+00    2.9     0.10912317      -150.0806563268  1.31E-02
   100 Broy./Diag. 0.10E+00    2.9     0.11125981      -150.0616117584  1.90E-02
   101 Broy./Diag. 0.10E+00    2.9     0.10044357      -150.0433702044  1.82E-02
   102 Broy./Diag. 0.10E+00    2.9     0.08658972      -150.0236323607  1.97E-02
   103 Broy./Diag. 0.10E+00    2.9     0.07473473      -149.9823222588  4.13E-02
   104 Broy./Diag. 0.10E+00    2.9     0.06089459      -149.9340870877  4.82E-02
   105 Broy./Diag. 0.10E+00    2.9     0.03422181      -150.1151826659 -1.81E-01
   106 Broy./Diag. 0.10E+00    2.8     0.12128178      -150.1686665604 -5.35E-02
   107 Broy./Diag. 0.10E+00    2.9     0.19162469      -150.2654237496 -9.68E-02
   108 Broy./Diag. 0.10E+00    2.8     0.21537280      -150.3061037883 -4.07E-02
   109 Broy./Diag. 0.10E+00    2.8     0.23850061      -150.2955965463  1.05E-02
   110 Broy./Diag. 0.10E+00    2.9     0.15914076      -150.2799632020  1.56E-02
   111 Broy./Diag. 0.10E+00    2.8     0.07184306      -150.2343275645  4.56E-02
   112 Broy./Diag. 0.10E+00    2.8     0.05938890      -150.2135100134  2.08E-02
   113 Broy./Diag. 0.10E+00    2.8     0.00508284      -150.2065786305  6.93E-03
   114 Broy./Diag. 0.10E+00    2.8     0.00520497      -150.2031045538  3.47E-03
   115 Broy./Diag. 0.10E+00    2.8     0.01815970      -150.2026441657  4.60E-04
   116 Broy./Diag. 0.10E+00    2.8     0.05019312      -150.1872408727  1.54E-02
   117 Broy./Diag. 0.10E+00    2.9     0.17158652      -150.1871561708  8.47E-05
   118 Broy./Diag. 0.10E+00    2.9     0.33521637      -150.1580400814  2.91E-02
   119 Broy./Diag. 0.10E+00    2.9     0.14198439      -150.2645419419 -1.07E-01
   120 Broy./Diag. 0.10E+00    2.9     0.01834617      -150.2717006681 -7.16E-03
   121 Broy./Diag. 0.10E+00    2.9     0.12050181      -150.3167372484 -4.50E-02
   122 Broy./Diag. 0.10E+00    2.9     0.12979364      -150.3553999499 -3.87E-02
   123 Broy./Diag. 0.10E+00    2.8     0.24319303      -150.3243536516  3.10E-02
   124 Broy./Diag. 0.10E+00    3.0     0.23122802      -150.3135645182  1.08E-02
   125 Broy./Diag. 0.10E+00    2.9     0.08211266      -150.2934279080  2.01E-02
   126 Broy./Diag. 0.10E+00    2.9     0.04295584      -150.2615073587  3.19E-02
   127 Broy./Diag. 0.10E+00    3.0     0.01844376      -150.2169728332  4.45E-02
   128 Broy./Diag. 0.10E+00    2.9     0.01289803      -150.1613753135  5.56E-02
   129 Broy./Diag. 0.10E+00    2.9     0.02228823      -150.1493264543  1.20E-02
   130 Broy./Diag. 0.10E+00    2.9     0.05075601      -150.1446614959  4.66E-03
   131 Broy./Diag. 0.10E+00    2.9     0.11308978      -150.1298563693  1.48E-02
   132 Broy./Diag. 0.10E+00    2.9     0.17711904      -150.1209560623  8.90E-03
   133 Broy./Diag. 0.10E+00    2.9     0.21577880      -150.1115067030  9.45E-03
   134 Broy./Diag. 0.10E+00    2.9     0.14181440      -150.1233629925 -1.19E-02
   135 Broy./Diag. 0.10E+00    2.9     0.03653424      -150.1663199900 -4.30E-02
   136 Broy./Diag. 0.10E+00    2.9     0.10421249      -150.2114495959 -4.51E-02
   137 Broy./Diag. 0.10E+00    2.9     0.17380822      -150.2562360069 -4.48E-02
   138 Broy./Diag. 0.10E+00    2.9     0.21395138      -150.2683076372 -1.21E-02
   139 Broy./Diag. 0.10E+00    2.8     0.18648006      -150.2578764351  1.04E-02
   140 Broy./Diag. 0.10E+00    2.8     0.12157814      -150.2460497666  1.18E-02
   141 Broy./Diag. 0.10E+00    2.8     0.04798592      -150.2058198349  4.02E-02
   142 Broy./Diag. 0.10E+00    2.9     0.07604661      -150.2179491067 -1.21E-02
   143 Broy./Diag. 0.10E+00    2.8     0.19470064      -150.1534933664  6.45E-02
   144 Broy./Diag. 0.10E+00    2.9     0.24948956      -150.1230767204  3.04E-02
   145 Broy./Diag. 0.10E+00    2.9     0.20233916      -150.1053166239  1.78E-02
   146 Broy./Diag. 0.10E+00    2.8     0.11137111      -150.1145010367 -9.18E-03
   147 Broy./Diag. 0.10E+00    2.9     0.06445625      -150.1347314354 -2.02E-02
   148 Broy./Diag. 0.10E+00    2.9     0.04997019      -150.1501041679 -1.54E-02
   149 Broy./Diag. 0.10E+00    2.8     0.02837339      -150.1538233295 -3.72E-03
   150 Broy./Diag. 0.10E+00    2.8     0.03222293      -150.1655481825 -1.17E-02
   151 Broy./Diag. 0.10E+00    2.8     0.01704315      -150.1711213844 -5.57E-03
   152 Broy./Diag. 0.10E+00    2.9     0.00626781      -150.1787563981 -7.64E-03
   153 Broy./Diag. 0.10E+00    2.8     0.03341944      -150.1780653715  6.91E-04
   154 Broy./Diag. 0.10E+00    2.8     0.03560010      -150.1800793582 -2.01E-03
   155 Broy./Diag. 0.10E+00    2.9     0.07032440      -150.1788082160  1.27E-03
   156 Broy./Diag. 0.10E+00    2.8     0.10267573      -150.1811616652 -2.35E-03
   157 Broy./Diag. 0.10E+00    2.8     0.12984917      -150.1816515087 -4.90E-04
   158 Broy./Diag. 0.10E+00    2.9     0.18553959      -150.1789580708  2.69E-03
   159 Broy./Diag. 0.10E+00    2.9     0.19512080      -150.1746650155  4.29E-03
   160 Broy./Diag. 0.10E+00    2.8     0.17376190      -150.1657287982  8.94E-03
   161 Broy./Diag. 0.10E+00    2.8     0.15195493      -150.1509854598  1.47E-02
   162 Broy./Diag. 0.10E+00    2.9     0.13362238      -150.1189313502  3.21E-02
   163 Broy./Diag. 0.10E+00    2.9     0.12863547      -150.0889151006  3.00E-02
   164 Broy./Diag. 0.10E+00    2.8     0.09309377      -150.0803466502  8.57E-03
   165 Broy./Diag. 0.10E+00    2.8     0.05682525      -150.0773054976  3.04E-03
   166 Broy./Diag. 0.10E+00    2.8     0.05821301      -150.0903617676 -1.31E-02
   167 Broy./Diag. 0.10E+00    2.8     0.08581771      -150.1331430650 -4.28E-02
   168 Broy./Diag. 0.10E+00    2.9     0.13377862      -150.1881071844 -5.50E-02
   169 Broy./Diag. 0.10E+00    2.9     0.14027063      -150.2053784827 -1.73E-02
   170 Broy./Diag. 0.10E+00    2.9     0.13411347      -150.1878834320  1.75E-02
   171 Broy./Diag. 0.10E+00    2.9     0.11481870      -150.1569375117  3.09E-02
   172 Broy./Diag. 0.10E+00    2.9     0.14772060      -150.1171684702  3.98E-02
   173 Broy./Diag. 0.10E+00    2.9     0.17747994      -150.1188774710 -1.71E-03
   174 Broy./Diag. 0.10E+00    2.9     0.08032520      -150.2253817475 -1.07E-01
   175 Broy./Diag. 0.10E+00    2.9     0.02786604      -150.3194915555 -9.41E-02
   176 Broy./Diag. 0.10E+00    2.8     0.01203636      -150.3670672642 -4.76E-02
   177 Broy./Diag. 0.10E+00    2.8     0.00809238      -150.3646831278  2.38E-03
   178 Broy./Diag. 0.10E+00    2.8     0.04829171      -150.2811024618  8.36E-02
   179 Broy./Diag. 0.10E+00    2.8     0.07212724      -150.1937842219  8.73E-02
   180 Broy./Diag. 0.10E+00    2.8     0.03277700      -150.1603199265  3.35E-02
   181 Broy./Diag. 0.10E+00    2.9     0.02033101      -150.1751370925 -1.48E-02
   182 Broy./Diag. 0.10E+00    2.8     0.02114752      -150.1843433772 -9.21E-03
   183 Broy./Diag. 0.10E+00    2.9     0.04938916      -150.1576684164  2.67E-02
   184 Broy./Diag. 0.10E+00    2.9     0.02257777      -150.1585087520 -8.40E-04
   185 Broy./Diag. 0.10E+00    2.8     0.00528145      -150.1799856368 -2.15E-02
   186 Broy./Diag. 0.10E+00    2.8     0.00254729      -150.1807728453 -7.87E-04
   187 Broy./Diag. 0.10E+00    2.9     0.02241992      -150.1687989745  1.20E-02
   188 Broy./Diag. 0.10E+00    2.8     0.02197635      -150.1562326481  1.26E-02
   189 Broy./Diag. 0.10E+00    2.9     0.03704307      -150.1486961617  7.54E-03
   190 Broy./Diag. 0.10E+00    2.9     0.05656024      -150.1464178842  2.28E-03
   191 Broy./Diag. 0.10E+00    2.8     0.07699373      -150.1436109711  2.81E-03
   192 Broy./Diag. 0.10E+00    2.8     0.12043793      -150.1398205578  3.79E-03
   193 Broy./Diag. 0.10E+00    2.8     0.17075207      -150.1385960159  1.22E-03
   194 Broy./Diag. 0.10E+00    2.9     0.18578038      -150.1347153616  3.88E-03
   195 Broy./Diag. 0.10E+00    2.8     0.19154519      -150.1279912473  6.72E-03
   196 Broy./Diag. 0.10E+00    2.8     0.20993018      -150.1182030476  9.79E-03
   197 Broy./Diag. 0.10E+00    2.9     0.18264630      -150.1043450886  1.39E-02
   198 Broy./Diag. 0.10E+00    2.8     0.13493419      -150.0901744476  1.42E-02
   199 Broy./Diag. 0.10E+00    2.8     0.09562451      -150.0810341602  9.14E-03
   200 Broy./Diag. 0.10E+00    2.8     0.07805801      -150.0725748387  8.46E-03
   201 Broy./Diag. 0.10E+00    2.8     0.07092537      -150.0586474166  1.39E-02
   202 Broy./Diag. 0.10E+00    2.8     0.08372861      -150.0424051341  1.62E-02
   203 Broy./Diag. 0.10E+00    2.9     0.09919748      -150.0241504111  1.83E-02
   204 Broy./Diag. 0.10E+00    2.8     0.11741784      -150.0079629008  1.62E-02
   205 Broy./Diag. 0.10E+00    2.8     0.12547650      -150.0007843027  7.18E-03
   206 Broy./Diag. 0.10E+00    2.8     0.11176545      -150.0123795101 -1.16E-02
   207 Broy./Diag. 0.10E+00    2.8     0.06686767      -150.0620286800 -4.96E-02
   208 Broy./Diag. 0.10E+00    2.8     0.03101028      -150.2897083076 -2.28E-01
   209 Broy./Diag. 0.10E+00    2.8     0.05004713      -150.2070274216  8.27E-02
   210 Broy./Diag. 0.10E+00    2.9     0.05710436      -149.9469921735  2.60E-01
   211 Broy./Diag. 0.10E+00    2.8     0.04446384      -149.8457128617  1.01E-01
   212 Broy./Diag. 0.10E+00    2.8     0.05821789      -149.8608937555 -1.52E-02
   213 Broy./Diag. 0.10E+00    2.8     0.02332833      -149.9063093177 -4.54E-02
   214 Broy./Diag. 0.10E+00    2.8     0.11259608      -150.1249899986 -2.19E-01
   215 Broy./Diag. 0.10E+00    2.9     0.04566940      -150.2942296283 -1.69E-01
   216 Broy./Diag. 0.10E+00    2.8     0.05738633      -150.2994621894 -5.23E-03
   217 Broy./Diag. 0.10E+00    2.9     0.04125375      -150.2666783303  3.28E-02
   218 Broy./Diag. 0.10E+00    2.9     0.03751394      -150.2410000839  2.57E-02
   219 Broy./Diag. 0.10E+00    2.8     0.14022996      -150.2325766401  8.42E-03
   220 Broy./Diag. 0.10E+00    3.0     0.04241448      -150.2570905039 -2.45E-02
   221 Broy./Diag. 0.10E+00    2.9     0.02055311      -150.2108358872  4.63E-02
   222 Broy./Diag. 0.10E+00    2.9     0.03674691      -150.2004262683  1.04E-02
   223 Broy./Diag. 0.10E+00    2.8     0.07358556      -150.1720035082  2.84E-02
   224 Broy./Diag. 0.10E+00    2.9     0.06974187      -150.1814243086 -9.42E-03
   225 Broy./Diag. 0.10E+00    2.8     0.07689412      -150.2548827791 -7.35E-02
   226 Broy./Diag. 0.10E+00    2.9     0.12216269      -150.3321126188 -7.72E-02
   227 Broy./Diag. 0.10E+00    3.0     0.15584350      -150.3406757373 -8.56E-03
   228 Broy./Diag. 0.10E+00    2.8     0.15998261      -150.3423241262 -1.65E-03
   229 Broy./Diag. 0.10E+00    2.9     0.15675207      -150.3443932247 -2.07E-03
   230 Broy./Diag. 0.10E+00    2.8     0.20329414      -150.3214487245  2.29E-02
   231 Broy./Diag. 0.10E+00    2.8     0.19799404      -150.2889687979  3.25E-02
   232 Broy./Diag. 0.10E+00    2.9     0.14944812      -150.2612463250  2.77E-02
   233 Broy./Diag. 0.10E+00    2.8     0.11923919      -150.2361514894  2.51E-02
   234 Broy./Diag. 0.10E+00    2.8     0.08626518      -150.2076226118  2.85E-02
   235 Broy./Diag. 0.10E+00    2.8     0.04195105      -150.1665133558  4.11E-02
   236 Broy./Diag. 0.10E+00    2.8     0.01445709      -150.1262602145  4.03E-02
   237 Broy./Diag. 0.10E+00    2.8     0.08458172      -150.1108835983  1.54E-02
   238 Broy./Diag. 0.10E+00    2.9     0.17881763      -150.1306652629 -1.98E-02
   239 Broy./Diag. 0.10E+00    2.8     0.19021888      -150.1834420318 -5.28E-02
   240 Broy./Diag. 0.10E+00    2.8     0.15556913      -150.2231415291 -3.97E-02
   241 Broy./Diag. 0.10E+00    2.8     0.09495952      -150.2618572532 -3.87E-02
   242 Broy./Diag. 0.10E+00    2.9     0.08148525      -150.2739068995 -1.20E-02
   243 Broy./Diag. 0.10E+00    2.9     0.02559245      -150.2226764240  5.12E-02
   244 Broy./Diag. 0.10E+00    2.9     0.04825376      -150.1403560188  8.23E-02
   245 Broy./Diag. 0.10E+00    2.9     0.05033581      -150.1303876693  9.97E-03
   246 Broy./Diag. 0.10E+00    2.9     0.01216908      -150.1803061140 -4.99E-02
   247 Broy./Diag. 0.10E+00    2.9     0.06403158      -150.2231725250 -4.29E-02
   248 Broy./Diag. 0.10E+00    2.9     0.05727229      -150.2100070710  1.32E-02
   249 Broy./Diag. 0.10E+00    2.9     0.03134906      -150.1326735454  7.73E-02
   250 Broy./Diag. 0.10E+00    2.9     0.03656505      -150.1257406669  6.93E-03
   251 Broy./Diag. 0.10E+00    2.9     0.07638471      -150.1193363043  6.40E-03
   252 Broy./Diag. 0.10E+00    2.9     0.14074356      -150.1052324026  1.41E-02
   253 Broy./Diag. 0.10E+00    2.9     0.18462127      -150.1089383403 -3.71E-03
   254 Broy./Diag. 0.10E+00    2.9     0.19461432      -150.1088203890  1.18E-04
   255 Broy./Diag. 0.10E+00    2.9     0.15427585      -150.1055943807  3.23E-03
   256 Broy./Diag. 0.10E+00    2.9     0.18674674      -150.1018753449  3.72E-03
   257 Broy./Diag. 0.10E+00    2.9     0.18425072      -150.0791792249  2.27E-02
   258 Broy./Diag. 0.10E+00    2.9     0.15318201      -150.0669834162  1.22E-02
   259 Broy./Diag. 0.10E+00    2.9     0.12083840      -150.0694809837 -2.50E-03
   260 Broy./Diag. 0.10E+00    2.9     0.08015464      -150.0583784253  1.11E-02
   261 Broy./Diag. 0.10E+00    2.9     0.05612361      -150.0515679758  6.81E-03
   262 Broy./Diag. 0.10E+00    2.9     0.03755994      -150.0583462807 -6.78E-03
   263 Broy./Diag. 0.10E+00    2.9     0.04281510      -150.0815570394 -2.32E-02
   264 Broy./Diag. 0.10E+00    2.9     0.09192922      -150.1501410176 -6.86E-02
   265 Broy./Diag. 0.10E+00    2.9     0.17082127      -150.2264450020 -7.63E-02
   266 Broy./Diag. 0.10E+00    2.8     0.16374715      -150.2362556932 -9.81E-03
   267 Broy./Diag. 0.10E+00    2.9     0.14339036      -150.2013675085  3.49E-02
   268 Broy./Diag. 0.10E+00    2.9     0.13312942      -150.1696404291  3.17E-02
   269 Broy./Diag. 0.10E+00    2.9     0.05484192      -150.0920326942  7.76E-02
   270 Broy./Diag. 0.10E+00    2.9     0.01565830      -149.9756772980  1.16E-01
   271 Broy./Diag. 0.10E+00    2.9     0.05327509      -149.9153079984  6.04E-02
   272 Broy./Diag. 0.10E+00    2.8     0.09705361      -149.9154706978 -1.63E-04
   273 Broy./Diag. 0.10E+00    2.9     0.03446114      -150.0216261184 -1.06E-01
   274 Broy./Diag. 0.10E+00    2.9     0.02358133      -150.1238201000 -1.02E-01
   275 Broy./Diag. 0.10E+00    2.8     0.04584703      -150.1501805972 -2.64E-02
   276 Broy./Diag. 0.10E+00    2.8     0.03411001      -150.1624200893 -1.22E-02
   277 Broy./Diag. 0.10E+00    2.8     0.01658479      -150.1881674019 -2.57E-02
   278 Broy./Diag. 0.10E+00    2.9     0.01132936      -150.2046575304 -1.65E-02
   279 Broy./Diag. 0.10E+00    2.8     0.00454060      -150.1984641565  6.19E-03
   280 Broy./Diag. 0.10E+00    2.9     0.00774062      -150.1772701504  2.12E-02
   281 Broy./Diag. 0.10E+00    2.9     0.01470481      -150.1404338083  3.68E-02
   282 Broy./Diag. 0.10E+00    2.8     0.02656116      -150.1167445986  2.37E-02
   283 Broy./Diag. 0.10E+00    2.8     0.02319268      -150.1262476048 -9.50E-03
   284 Broy./Diag. 0.10E+00    2.9     0.02212729      -150.1376383570 -1.14E-02
   285 Broy./Diag. 0.10E+00    2.8     0.00437007      -150.1404589359 -2.82E-03
   286 Broy./Diag. 0.10E+00    2.8     0.00735091      -150.1434188568 -2.96E-03
   287 Broy./Diag. 0.10E+00    2.8     0.02144653      -150.1424132407  1.01E-03
   288 Broy./Diag. 0.10E+00    2.8     0.01304504      -150.1471007618 -4.69E-03
   289 Broy./Diag. 0.10E+00    2.9     0.00649603      -150.1567635861 -9.66E-03
   290 Broy./Diag. 0.10E+00    2.8     0.00987699      -150.1628985904 -6.14E-03
   291 Broy./Diag. 0.10E+00    2.8     0.01310704      -150.1638996163 -1.00E-03
   292 Broy./Diag. 0.10E+00    2.9     0.01973090      -150.1639432868 -4.37E-05
   293 Broy./Diag. 0.10E+00    2.8     0.03099496      -150.1634069806  5.36E-04
   294 Broy./Diag. 0.10E+00    2.8     0.04880549      -150.1631350514  2.72E-04
   295 Broy./Diag. 0.10E+00    2.8     0.06824641      -150.1628330702  3.02E-04
   296 Broy./Diag. 0.10E+00    2.9     0.09999053      -150.1622520977  5.81E-04
   297 Broy./Diag. 0.10E+00    2.8     0.12047919      -150.1577711542  4.48E-03
   298 Broy./Diag. 0.10E+00    2.8     0.18178834      -150.1503845518  7.39E-03
   299 Broy./Diag. 0.10E+00    2.9     0.22912336      -150.1388861916  1.15E-02
   300 Broy./Diag. 0.10E+00    2.8     0.21990780      -150.1251865080  1.37E-02
   301 Broy./Diag. 0.10E+00    2.8     0.16972881      -150.1096015462  1.56E-02
   302 Broy./Diag. 0.10E+00    2.8     0.11120070      -150.0962159036  1.34E-02
   303 Broy./Diag. 0.10E+00    2.8     0.09941551      -150.0870857617  9.13E-03
   304 Broy./Diag. 0.10E+00    2.8     0.08630902      -150.0817740667  5.31E-03
   305 Broy./Diag. 0.10E+00    2.9     0.06664580      -150.0801919622  1.58E-03
   306 Broy./Diag. 0.10E+00    2.9     0.04794240      -150.0779431065  2.25E-03
   307 Broy./Diag. 0.10E+00    2.8     0.03516906      -150.0774061656  5.37E-04
   308 Broy./Diag. 0.10E+00    2.8     0.02510274      -150.0688866624  8.52E-03
   309 Broy./Diag. 0.10E+00    2.9     0.02762318      -149.9879224820  8.10E-02
   310 Broy./Diag. 0.10E+00    2.8     0.03939215      -149.9399180907  4.80E-02
   311 Broy./Diag. 0.10E+00    2.8     0.20124359      -149.9844368670 -4.45E-02
   312 Broy./Diag. 0.10E+00    2.9     0.25123556      -150.0140829570 -2.96E-02
   313 Broy./Diag. 0.10E+00    3.0     0.18470368      -149.9770876662  3.70E-02
   314 Broy./Diag. 0.10E+00    2.8     0.12734730      -150.0011607090 -2.41E-02
   315 Broy./Diag. 0.10E+00    2.9     0.13718919      -150.0159236792 -1.48E-02
   316 Broy./Diag. 0.10E+00    2.9     0.14325125      -149.8585278780  1.57E-01
   317 Broy./Diag. 0.10E+00    2.8     0.14300277      -149.3299607339  5.29E-01
   318 Broy./Diag. 0.10E+00    2.8     0.08923664      -149.0684370289  2.62E-01
   319 Broy./Diag. 0.10E+00    2.9     0.57309648      -148.9847343037  8.37E-02
   320 Broy./Diag. 0.10E+00    3.0     0.29488858      -149.2600836512 -2.75E-01
   321 Broy./Diag. 0.10E+00    2.8     0.17974188      -149.4380530101 -1.78E-01
   322 Broy./Diag. 0.10E+00    2.8     0.03358703      -149.4235969842  1.45E-02
   323 Broy./Diag. 0.10E+00    2.8     0.02895179      -149.4069491874  1.66E-02
   324 Broy./Diag. 0.10E+00    2.9     0.07826758      -149.4624238828 -5.55E-02
   325 Broy./Diag. 0.10E+00    2.8     0.08326423      -149.5294654281 -6.70E-02
   326 Broy./Diag. 0.10E+00    2.9     0.06660325      -149.5585509953 -2.91E-02
   327 Broy./Diag. 0.10E+00    2.8     0.24276466      -149.8107435138 -2.52E-01
   328 Broy./Diag. 0.10E+00    2.9     0.14516689      -150.1117154985 -3.01E-01
   329 Broy./Diag. 0.10E+00    2.8     0.07634983      -150.2271011149 -1.15E-01
   330 Broy./Diag. 0.10E+00    2.8     0.15235299      -150.1740259806  5.31E-02
   331 Broy./Diag. 0.10E+00    2.9     0.13923553      -150.1766273275 -2.60E-03
   332 Broy./Diag. 0.10E+00    2.8     0.06750940      -150.1457127007  3.09E-02
   333 Broy./Diag. 0.10E+00    2.8     0.01520866      -150.1330301402  1.27E-02
   334 Broy./Diag. 0.10E+00    2.8     0.03833605      -150.1836474969 -5.06E-02
   335 Broy./Diag. 0.10E+00    2.8     0.01705487      -150.2404984302 -5.69E-02
   336 Broy./Diag. 0.10E+00    2.9     0.00961137      -150.2528533742 -1.24E-02
   337 Broy./Diag. 0.10E+00    2.8     0.02176778      -150.2308134006  2.20E-02
   338 Broy./Diag. 0.10E+00    2.9     0.00361455      -150.2080109551  2.28E-02
   339 Broy./Diag. 0.10E+00    2.8     0.02656146      -150.2054331873  2.58E-03
   340 Broy./Diag. 0.10E+00    2.8     0.01812013      -150.2081896658 -2.76E-03
   341 Broy./Diag. 0.10E+00    2.9     0.01717473      -150.1982300332  9.96E-03
   342 Broy./Diag. 0.10E+00    2.8     0.03599622      -150.1658706905  3.24E-02
   343 Broy./Diag. 0.10E+00    2.8     0.03134395      -150.1518193885  1.41E-02
   344 Broy./Diag. 0.10E+00    2.9     0.01711990      -150.1430324254  8.79E-03
   345 Broy./Diag. 0.10E+00    2.9     0.01106971      -150.1401551814  2.88E-03
   346 Broy./Diag. 0.10E+00    2.8     0.01932962      -150.1400511197  1.04E-04
   347 Broy./Diag. 0.10E+00    2.8     0.02182355      -150.1411461793 -1.10E-03
   348 Broy./Diag. 0.10E+00    2.8     0.00663479      -150.1425385314 -1.39E-03
   349 Broy./Diag. 0.10E+00    2.8     0.00265107      -150.1419558710  5.83E-04
   350 Broy./Diag. 0.10E+00    2.8     0.00558326      -150.1398242168  2.13E-03
   351 Broy./Diag. 0.10E+00    2.8     0.01140216      -150.1379068867  1.92E-03
   352 Broy./Diag. 0.10E+00    2.9     0.00395671      -150.1375257987  3.81E-04
[...]
 *    |             please set the keyword IGNORE_CONVERGENCE_FAILURE.         *
 *  O/|                                                                        *
 * /| |                                                                        *
 * / \                                                            qs_scf.F:611 *
 *******************************************************************************


 ===== Routine Calling Stack ===== 

            3 scf_env_do_scf
            2 qs_energies
            1 CP2K

 *******************************************************************************
 *   ___                                                                       *
 *  /   \                                                                      *
 * [ABORT]                                                                     *
 *  \___/     SCF run NOT converged. To continue the calculation regardless,   *
 *    |             please set the keyword IGNORE_CONVERGENCE_FAILURE.         *
 *  O/|                                                                        *
 * /| |                                                                        *
 * / \                                                            qs_scf.F:611 *
 *******************************************************************************


 ===== Routine Calling Stack ===== 

            3 scf_env_do_scf
            2 qs_energies
            1 CP2K

 *******************************************************************************
 *   ___                                                                       *
 *  /   \                                                                      *
 * [ABORT]                                                                     *
 *  \___/     SCF run NOT converged. To continue the calculation regardless,   *
 *    |             please set the keyword IGNORE_CONVERGENCE_FAILURE.         *
 *  O/|                                                                        *
 * /| |                                                                        *
 * / \                                                            qs_scf.F:611 *
 *******************************************************************************


 ===== Routine Calling Stack ===== 

            3 scf_env_do_scf
            2 qs_energies
            1 CP2K

 *******************************************************************************
 *   ___                                                                       *
 *  /   \                                                                      *
 * [ABORT]                                                                     *
 *  \___/     SCF run NOT converged. To continue the calculation regardless,   *
 *    |             please set the keyword IGNORE_CONVERGENCE_FAILURE.         *
 *  O/|                                                                        *
 * /| |                                                                        *
 * / \                                                            qs_scf.F:611 *
 *******************************************************************************


 ===== Routine Calling Stack ===== 

            3 scf_env_do_scf
            2 qs_energies
            1 CP2K

 *******************************************************************************
 *   ___                                                                       *
 *  /   \                                                                      *
 * [ABORT]                                                                     *
 *  \___/     SCF run NOT converged. To continue the calculation regardless,   *
 *    |             please set the keyword IGNORE_CONVERGENCE_FAILURE.         *
 *  O/|                                                                        *
 * /| |                                                                        *
 * / \                                                            qs_scf.F:611 *
 *******************************************************************************


 ===== Routine Calling Stack ===== 

            3 scf_env_do_scf
            2 qs_energies
            1 CP2K

 *******************************************************************************
 *   ___                                                                       *
 *  /   \                                                                      *
 * [ABORT]                                                                     *
 *  \___/     SCF run NOT converged. To continue the calculation regardless,   *
 *    |             please set the keyword IGNORE_CONVERGENCE_FAILURE.         *
 *  O/|                                                                        *
 * /| |                                                                        *
 * / \                                                            qs_scf.F:611 *
 *******************************************************************************


 ===== Routine Calling Stack ===== 

            3 scf_env_do_scf
            2 qs_energies
            1 CP2K

 *******************************************************************************
 *   ___                                                                       *
 *  /   \                                                                      *
 * [ABORT]                                                                     *
 *  \___/     SCF run NOT converged. To continue the calculation regardless,   *
 *    |             please set the keyword IGNORE_CONVERGENCE_FAILURE.         *
 *  O/|                                                                        *
 * /| |                                                                        *
 * / \                                                            qs_scf.F:611 *
 *******************************************************************************


 ===== Routine Calling Stack ===== 

            3 scf_env_do_scf
            2 qs_energies
            1 CP2K

 *******************************************************************************
 *   ___                                                                       *
 *  /   \                                                                      *
 * [ABORT]                                                                     *
 *  \___/     SCF run NOT converged. To continue the calculation regardless,   *
 *    |             please set the keyword IGNORE_CONVERGENCE_FAILURE.         *
 *  O/|                                                                        *
 * /| |                                                                        *
 * / \                                                            qs_scf.F:611 *
 *******************************************************************************


 ===== Routine Calling Stack ===== 

            3 scf_env_do_scf
            2 qs_energies
            1 CP2K

 *******************************************************************************
 *   ___                                                                       *
 *  /   \                                                                      *
 * [ABORT]                                                                     *
 *  \___/     SCF run NOT converged. To continue the calculation regardless,   *
 *    |             please set the keyword IGNORE_CONVERGENCE_FAILURE.         *
 *  O/|                                                                        *
 * /| |                                                                        *
 * / \                                                            qs_scf.F:611 *
 *******************************************************************************


 ===== Routine Calling Stack ===== 

            3 scf_env_do_scf
            2 qs_energies
            1 CP2K

 *******************************************************************************
 *   ___                                                                       *
 *  /   \                                                                      *
 * [ABORT]                                                                     *
 *  \___/     SCF run NOT converged. To continue the calculation regardless,   *
 *    |             please set the keyword IGNORE_CONVERGENCE_FAILURE.         *
 *  O/|                                                                        *
 * /| |                                                                        *
 * / \                                                            qs_scf.F:611 *
 *******************************************************************************


 ===== Routine Calling Stack ===== 

            3 scf_env_do_scf
            2 qs_energies
            1 CP2K

 *******************************************************************************
 *   ___                                                                       *
 *  /   \                                                                      *
 * [ABORT]                                                                     *
 *  \___/     SCF run NOT converged. To continue the calculation regardless,   *
 *    |             please set the keyword IGNORE_CONVERGENCE_FAILURE.         *
 *  O/|                                                                        *
 * /| |                                                                        *
 * / \                                                            qs_scf.F:611 *
 *******************************************************************************


 ===== Routine Calling Stack ===== 

            3 scf_env_do_scf
            2 qs_energies
            1 CP2K

 *******************************************************************************
 *   ___                                                                       *
 *  /   \                                                                      *
 * [ABORT]                                                                     *
 *  \___/     SCF run NOT converged. To continue the calculation regardless,   *
 *    |             please set the keyword IGNORE_CONVERGENCE_FAILURE.         *
 *  O/|                                                                        *
 * /| |                                                                        *
 * / \                                                            qs_scf.F:611 *
 *******************************************************************************


 ===== Routine Calling Stack ===== 

            3 scf_env_do_scf
            2 qs_energies
            1 CP2K

 *******************************************************************************
 *   ___                                                                       *
 *  /   \                                                                      *
 * [ABORT]                                                                     *
 *  \___/     SCF run NOT converged. To continue the calculation regardless,   *
 *    |             please set the keyword IGNORE_CONVERGENCE_FAILURE.         *
 *  O/|                                                                        *
 * /| |                                                                        *
 * / \                                                            qs_scf.F:611 *
 *******************************************************************************


 ===== Routine Calling Stack ===== 

            3 scf_env_do_scf
            2 qs_energies
            1 CP2K

 *******************************************************************************
 *   ___                                                                       *
 *  /   \                                                                      *
 * [ABORT]                                                                     *
 *  \___/     SCF run NOT converged. To continue the calculation regardless,   *
 *    |             please set the keyword IGNORE_CONVERGENCE_FAILURE.         *
 *  O/|                                                                        *
 * /| |                                                                        *
 * / \                                                            qs_scf.F:611 *
 *******************************************************************************


 ===== Routine Calling Stack ===== 

            3 scf_env_do_scf
            2 qs_energies
            1 CP2K

 *******************************************************************************
 *   ___                                                                       *
 *  /   \                                                                      *
 * [ABORT]                                                                     *
 *  \___/     SCF run NOT converged. To continue the calculation regardless,   *
 *    |             please set the keyword IGNORE_CONVERGENCE_FAILURE.         *
 *  O/|                                                                        *
 * /| |                                                                        *
 * / \                                                            qs_scf.F:611 *
 *******************************************************************************


 ===== Routine Calling Stack ===== 

            3 scf_env_do_scf
            2 qs_energies
            1 CP2K

 *******************************************************************************
 *   ___                                                                       *
 *  /   \                                                                      *
 * [ABORT]                                                                     *
 *  \___/     SCF run NOT converged. To continue the calculation regardless,   *
 *    |             please set the keyword IGNORE_CONVERGENCE_FAILURE.         *
 *  O/|                                                                        *
 * /| |                                                                        *
 * / \                                                            qs_scf.F:611 *
 *******************************************************************************


 ===== Routine Calling Stack ===== 

            3 scf_env_do_scf
            2 qs_energies
            1 CP2K

 *******************************************************************************
 *   ___                                                                       *
 *  /   \                                                                      *
 * [ABORT]                                                                     *
 *  \___/     SCF run NOT converged. To continue the calculation regardless,   *
 *    |             please set the keyword IGNORE_CONVERGENCE_FAILURE.         *
 *  O/|                                                                        *
 * /| |                                                                        *
 * / \                                                            qs_scf.F:611 *
 *******************************************************************************


 ===== Routine Calling Stack ===== 

            3 scf_env_do_scf
            2 qs_energies
            1 CP2K

 *******************************************************************************
 *   ___                                                                       *
 *  /   \                                                                      *
 * [ABORT]                                                                     *
 *  \___/     SCF run NOT converged. To continue the calculation regardless,   *
 *    |             please set the keyword IGNORE_CONVERGENCE_FAILURE.         *
 *  O/|                                                                        *
 * /| |                                                                        *
 * / \                                                            qs_scf.F:611 *
 *******************************************************************************


 ===== Routine Calling Stack ===== 

            3 scf_env_do_scf
            2 qs_energies
            1 CP2K

 *******************************************************************************
 *   ___                                                                       *
 *  /   \                                                                      *
 * [ABORT]                                                                     *
 *  \___/     SCF run NOT converged. To continue the calculation regardless,   *
 *    |             please set the keyword IGNORE_CONVERGENCE_FAILURE.         *
 *  O/|                                                                        *
 * /| |                                                                        *
 * / \                                                            qs_scf.F:611 *
 *******************************************************************************


 ===== Routine Calling Stack ===== 

            3 scf_env_do_scf
            2 qs_energies
            1 CP2K

 *******************************************************************************
 *   ___                                                                       *
 *  /   \                                                                      *
 * [ABORT]                                                                     *
 *  \___/     SCF run NOT converged. To continue the calculation regardless,   *
 *    |             please set the keyword IGNORE_CONVERGENCE_FAILURE.         *
 *  O/|                                                                        *
 * /| |                                                                        *
 * / \                                                            qs_scf.F:611 *
 *******************************************************************************


 ===== Routine Calling Stack ===== 

            3 scf_env_do_scf
            2 qs_energies
            1 CP2K

 *******************************************************************************
 *   ___                                                                       *
 *  /   \                                                                      *
 * [ABORT]                                                                     *
 *  \___/     SCF run NOT converged. To continue the calculation regardless,   *
 *    |             please set the keyword IGNORE_CONVERGENCE_FAILURE.         *
 *  O/|                                                                        *
 * /| |                                                                        *
 * / \                                                            qs_scf.F:611 *
 *******************************************************************************


 ===== Routine Calling Stack ===== 

            3 scf_env_do_scf
            2 qs_energies
            1 CP2K

 *******************************************************************************
 *   ___                                                                       *
 *  /   \                                                                      *
 * [ABORT]                                                                     *
 *  \___/     SCF run NOT converged. To continue the calculation regardless,   *
 *    |             please set the keyword IGNORE_CONVERGENCE_FAILURE.         *
 *  O/|                                                                        *
 * /| |                                                                        *
 * / \                                                            qs_scf.F:611 *
 *******************************************************************************


 ===== Routine Calling Stack ===== 

            3 scf_env_do_scf
            2 qs_energies
            1 CP2K
