 DBCSR| CPU Multiplication driver                                           BLAS (U)
 DBCSR| Multrec recursion limit                                              512 (U)
 DBCSR| Multiplication stack size                                           1000 (D)
 DBCSR| Maximum elements for images                                    UNLIMITED (U)
 DBCSR| Multiplicative factor virtual images                                   1 (U)
 DBCSR| Use multiplication densification                                       T (D)
 DBCSR| Multiplication size stacks                                             3 (U)
 DBCSR| Use memory pool for CPU allocation                                     F (U)
 DBCSR| Number of 3D layers                                               SINGLE (U)
 DBCSR| Use MPI memory allocation                                              F (U)
 DBCSR| Use RMA algorithm                                                      F (U)
 DBCSR| Use Communication thread                                               T (U)
 DBCSR| Communication thread load                                             75 (D)
 DBCSR| MPI: My process id                                                     0
 DBCSR| MPI: Number of processes                                              24
 DBCSR| OMP: Current number of threads                                         4
 DBCSR| OMP: Max number of threads                                             4
 DBCSR| Split modifier for TAS multiplication algorithm                  1.0E+00 (U)


  **** **** ******  **  PROGRAM STARTED AT               2025-03-11 06:46:13.832
 ***** ** ***  *** **   PROGRAM STARTED ON                          i03r10c02s05
 **    ****   ******    PROGRAM STARTED BY                               di38fab
 ***** **    ** ** **   PROGRAM PROCESS ID                                205187
  **** **  *******  **  PROGRAM STARTED IN /hppfs/scratch/04/di38fab/05_MOL/W4-1
                                           1+ALK/so/aug-cc-pV5Z

 CP2K| version string:                 CP2K version 2025.1 (Development Version)
 CP2K| source code revision number:                                  git:d2e611a
 CP2K| cp2kflags: omp libint fftw3 libxc parallel scalapack max_contr=4         
 CP2K| is freely available from                            https://www.cp2k.org/
 CP2K| Program compiled at                       Thu 06 Mar 2025 05:09:20 PM CET
 CP2K| Program compiled on                                               login02
 CP2K| Program compiled for                                        Supermuc-foss
 CP2K| Data directory path                  /hppfs/work/pn36zo/di38fab/cp2k/data
 CP2K| Input file name                                                    GW.inp

 GLOBAL| Force Environment number                                              1
 GLOBAL| Basis set file name            /hppfs/scratch/04/di38fab/04_TMD/BASIS_A
 GLOBAL| Potential file name            /hppfs/work/pn36zo/di38fab/cp2k/data/ALL
 GLOBAL| MM Potential file name                                     MM_POTENTIAL
 GLOBAL| Coordinate file name                                      __STD_INPUT__
 GLOBAL| Method name                                                        CP2K
 GLOBAL| Project name                                                       MoS2
 GLOBAL| Run type                                                         ENERGY
 GLOBAL| FFT library                                                       FFTW3
 GLOBAL| Diagonalization library                                       ScaLAPACK
 GLOBAL| DGEMM library                                                      BLAS
 GLOBAL| Orthonormality check for eigenvectors                          DISABLED
 GLOBAL| Matrix multiplication library                                 ScaLAPACK
 GLOBAL| All-to-all communication in single precision                          F
 GLOBAL| FFTs using library dependent lengths                                  F
 GLOBAL| Grid backend                                                       AUTO
 GLOBAL| Global print level                                               MEDIUM
 GLOBAL| MPI I/O enabled                                                       T
 GLOBAL| Total number of message passing processes                            24
 GLOBAL| Number of threads for this process                                    4
 GLOBAL| This output is from process                                           0
 GLOBAL| OpenMP stack size per thread (OMP_STACKSIZE)                    default
 GLOBAL| CPU model name             Intel(R) Xeon(R) Platinum 8174 CPU @ 3.10GHz

 MEMORY| system memory details [Kb]
 MEMORY|                        rank 0           min           max       average
 MEMORY| MemTotal             98436708      98436664      98436708      98436686
 MEMORY| MemFree              84317028      84115884      84317028      84216456
 MEMORY| Buffers                     0             0             0             0
 MEMORY| Cached                2411824       2411824       2429932       2420878
 MEMORY| Slab                  1258224       1258224       1275512       1266868
 MEMORY| SReclaimable           283792        277324        283792        280558
 MEMORY| MemLikelyFree        87012644      86823140      87012644      86917892


 *** Fundamental physical constants (SI units) ***

 *** Literature: B. J. Mohr and B. N. Taylor,
 ***             CODATA recommended values of the fundamental physical
 ***             constants: 2006, Web Version 5.1
 ***             http://physics.nist.gov/constants

 Speed of light in vacuum [m/s]                             2.99792458000000E+08
 Magnetic constant or permeability of vacuum [N/A**2]       1.25663706143592E-06
 Electric constant or permittivity of vacuum [F/m]          8.85418781762039E-12
 Planck constant (h) [J*s]                                  6.62606896000000E-34
 Planck constant (h-bar) [J*s]                              1.05457162825177E-34
 Elementary charge [C]                                      1.60217648700000E-19
 Electron mass [kg]                                         9.10938215000000E-31
 Electron g factor [ ]                                     -2.00231930436220E+00
 Proton mass [kg]                                           1.67262163700000E-27
 Fine-structure constant                                    7.29735253760000E-03
 Rydberg constant [1/m]                                     1.09737315685270E+07
 Avogadro constant [1/mol]                                  6.02214179000000E+23
 Boltzmann constant [J/K]                                   1.38065040000000E-23
 Atomic mass unit [kg]                                      1.66053878200000E-27
 Bohr radius [m]                                            5.29177208590000E-11

 *** Conversion factors ***

 [u] -> [a.u.]                                              1.82288848426455E+03
 [Angstrom] -> [Bohr] = [a.u.]                              1.88972613288564E+00
 [a.u.] = [Bohr] -> [Angstrom]                              5.29177208590000E-01
 [a.u.] -> [s]                                              2.41888432650478E-17
 [a.u.] -> [fs]                                             2.41888432650478E-02
 [a.u.] -> [J]                                              4.35974393937059E-18
 [a.u.] -> [N]                                              8.23872205491840E-08
 [a.u.] -> [K]                                              3.15774647902944E+05
 [a.u.] -> [kJ/mol]                                         2.62549961709828E+03
 [a.u.] -> [kcal/mol]                                       6.27509468713739E+02
 [a.u.] -> [Pa]                                             2.94210107994716E+13
 [a.u.] -> [bar]                                            2.94210107994716E+08
 [a.u.] -> [atm]                                            2.90362800883016E+08
 [a.u.] -> [eV]                                             2.72113838565563E+01
 [a.u.] -> [Hz]                                             6.57968392072181E+15
 [a.u.] -> [1/cm] (wave numbers)                            2.19474631370540E+05
 [a.u./Bohr**2] -> [1/cm]                                   5.14048714338585E+03
 

 CELL_TOP| Volume [angstrom^3]:                                     27000.000000
 CELL_TOP| Vector a [angstrom    30.000     0.000     0.000   |a| =    30.000000
 CELL_TOP| Vector b [angstrom     0.000    30.000     0.000   |b| =    30.000000
 CELL_TOP| Vector c [angstrom     0.000     0.000    30.000   |c| =    30.000000
 CELL_TOP| Angle (b,c), alpha [degree]:                                90.000000
 CELL_TOP| Angle (a,c), beta  [degree]:                                90.000000
 CELL_TOP| Angle (a,b), gamma [degree]:                                90.000000
 CELL_TOP| Numerically orthorhombic:                                         YES
 CELL_TOP| Periodicity                                                      NONE

 GENERATE|  Preliminary Number of Bonds generated:                             0
 GENERATE|  Achieved consistency in connectivity generation.

 CELL| Volume [angstrom^3]:                                         27000.000000
 CELL| Vector a [angstrom]:      30.000     0.000     0.000   |a| =    30.000000
 CELL| Vector b [angstrom]:       0.000    30.000     0.000   |b| =    30.000000
 CELL| Vector c [angstrom]:       0.000     0.000    30.000   |c| =    30.000000
 CELL| Angle (b,c), alpha [degree]:                                    90.000000
 CELL| Angle (a,c), beta  [degree]:                                    90.000000
 CELL| Angle (a,b), gamma [degree]:                                    90.000000
 CELL| Numerically orthorhombic:                                             YES
 CELL| Periodicity                                                          NONE

 CELL_REF| Volume [angstrom^3]:                                     27000.000000
 CELL_REF| Vector a [angstrom    30.000     0.000     0.000   |a| =    30.000000
 CELL_REF| Vector b [angstrom     0.000    30.000     0.000   |b| =    30.000000
 CELL_REF| Vector c [angstrom     0.000     0.000    30.000   |c| =    30.000000
 CELL_REF| Angle (b,c), alpha [degree]:                                90.000000
 CELL_REF| Angle (a,c), beta  [degree]:                                90.000000
 CELL_REF| Angle (a,b), gamma [degree]:                                90.000000
 CELL_REF| Numerically orthorhombic:                                         YES
 CELL_REF| Periodicity                                                      NONE

 *******************************************************************************
 *******************************************************************************
 **                                                                           **
 **     #####                         ##              ##                      **
 **    ##   ##            ##          ##              ##                      **
 **   ##     ##                       ##            ######                    **
 **   ##     ##  ##   ##  ##   #####  ##  ##   ####   ##    #####    #####    **
 **   ##     ##  ##   ##  ##  ##      ## ##   ##      ##   ##   ##  ##   ##   **
 **   ##  ## ##  ##   ##  ##  ##      ####     ###    ##   ######   ######    **
 **    ##  ###   ##   ##  ##  ##      ## ##      ##   ##   ##       ##        **
 **     #######   #####   ##   #####  ##  ##  ####    ##    #####   ##        **
 **           ##                                                    ##        **
 **                                                                           **
 **                                                ... make the atoms dance   **
 **                                                                           **
 **            Copyright (C) by CP2K developers group (2000-2025)             **
 **                      J. Chem. Phys. 152, 194103 (2020)                    **
 **                                                                           **
 *******************************************************************************

 DFT| Spin restricted Kohn-Sham (RKS) calculation                            RKS
 DFT| Multiplicity                                                             1
 DFT| Number of spin states                                                    1
 DFT| Charge                                                                   0
 DFT| Self-interaction correction (SIC)                                       NO
 DFT| Cutoffs: density                                              1.000000E-10
 DFT|          gradient                                             1.000000E-10
 DFT|          tau                                                  1.000000E-10
 DFT|          cutoff_smoothing_range                               0.000000E+00
 DFT| XC density smoothing                                                  NONE
 DFT| XC derivatives                                                          PW

 FUNCTIONAL| PBE:
 FUNCTIONAL| J.P.Perdew, K.Burke, M.Ernzerhof, Phys. Rev. Letter, vol. 77, n 18,
 FUNCTIONAL|  pp. 3865-3868, (1996)sx=0.750sc=1.000{spin unpolarized}           


 QS| Method:                                                                GAPW
 QS| Density plane wave grid type                        NON-SPHERICAL FULLSPACE
 QS| Number of grid levels:                                                    4
 QS| Density cutoff [a.u.]:                                                250.0
 QS| Multi grid cutoff [a.u.]: 1) grid level                               250.0
 QS|                           2) grid level                                83.3
 QS|                           3) grid level                                27.8
 QS|                           4) grid level                                 9.3
 QS| Grid level progression factor:                                          3.0
 QS| Relative density cutoff [a.u.]:                                        50.0
 QS| Interaction thresholds: eps_pgf_orb:                                1.0E-12
 QS|                         eps_filter_matrix:                          0.0E+00
 QS|                         eps_core_charge:                            1.0E-14
 QS|                         eps_rho_gspace:                             1.0E-12
 QS|                         eps_rho_rspace:                             1.0E-12
 QS|                         eps_gvg_rspace:                             1.0E-06
 QS|                         eps_ppl:                                    1.0E-02
 QS|                         eps_ppnl:                                   1.0E-08
 QS| GAPW|      One center basis from orbital basis primitives
 QS| GAPW|                   eps_fit:                                    1.0E-04
 QS| GAPW|                   eps_iso:                                    1.0E-12
 QS| GAPW|                   eps_svd:                                    1.0E-08
 QS| GAPW|                   eps_cpc:                                    1.0E-12
 QS| GAPW|   atom-r-grid: quadrature:                                     GC_LOG
 QS| GAPW|      atom-s-grid:  max l :                                         10
 QS| GAPW|      max_l_rho0 :                                                   2


 ATOMIC KIND INFORMATION

  1. Atomic kind: S                                     Number of atoms:       1

     Orbital Basis Set                                               aug-cc-pV5Z

       Number of orbital shell sets:                                          12
       Number of orbital shells:                                              29
       Number of primitive Cartesian functions:                               48
       Number of Cartesian basis functions:                                  186
       Number of spherical basis functions:                                  131
       Norm type:                                                              2

       Normalised Cartesian orbitals:

                        Set   Shell   Orbital            Exponent    Coefficient

                          1       1    1px               0.029400       0.017353
                          1       1    1py               0.029400       0.017353
                          1       1    1pz               0.029400       0.017353

                          2       1    1s                0.042000       0.066122

                          3       1    1dx2              0.079400       0.019548
                          3       1    1dxy              0.079400       0.033858
                          3       1    1dxz              0.079400       0.033858
                          3       1    1dy2              0.079400       0.019548
                          3       1    1dyz              0.079400       0.033858
                          3       1    1dz2              0.079400       0.019548

                          4       1    1px            2200.000000       5.133994
                                                       521.400000       7.375833
                                                       169.000000       9.759369
                                                        64.050000      11.382094
                                                        26.720000      11.185118
                                                        11.830000       8.415060
                                                         5.378000       4.419868
                                                         2.482000       1.317879
                                                         1.116000       0.127478
                                                         0.484800       0.001183
                                                         0.200600       0.000275
                                                         0.079510      -0.000004
                          4       1    1py            2200.000000       5.133994
                                                       521.400000       7.375833
                                                       169.000000       9.759369
                                                        64.050000      11.382094
                                                        26.720000      11.185118
                                                        11.830000       8.415060
                                                         5.378000       4.419868
                                                         2.482000       1.317879
                                                         1.116000       0.127478
                                                         0.484800       0.001183
                                                         0.200600       0.000275
                                                         0.079510      -0.000004
                          4       1    1pz            2200.000000       5.133994
                                                       521.400000       7.375833
                                                       169.000000       9.759369
                                                        64.050000      11.382094
                                                        26.720000      11.185118
                                                        11.830000       8.415060
                                                         5.378000       4.419868
                                                         2.482000       1.317879
                                                         1.116000       0.127478
                                                         0.484800       0.001183
                                                         0.200600       0.000275
                                                         0.079510      -0.000004

                          4       2    2px            2200.000000       0.000000
                                                       521.400000       0.000000
                                                       169.000000       0.000000
                                                        64.050000       0.000000
                                                        26.720000       0.000000
                                                        11.830000       0.000000
                                                         5.378000       0.000000
                                                         2.482000       0.000000
                                                         1.116000       1.635010
                                                         0.484800       0.000000
                                                         0.200600       0.000000
                                                         0.079510       0.000000
                          4       2    2py            2200.000000       0.000000
                                                       521.400000       0.000000
                                                       169.000000       0.000000
                                                        64.050000       0.000000
                                                        26.720000       0.000000
                                                        11.830000       0.000000
                                                         5.378000       0.000000
                                                         2.482000       0.000000
                                                         1.116000       1.635010
                                                         0.484800       0.000000
                                                         0.200600       0.000000
                                                         0.079510       0.000000
                          4       2    2pz            2200.000000       0.000000
                                                       521.400000       0.000000
                                                       169.000000       0.000000
                                                        64.050000       0.000000
                                                        26.720000       0.000000
                                                        11.830000       0.000000
                                                         5.378000       0.000000
                                                         2.482000       0.000000
                                                         1.116000       1.635010
                                                         0.484800       0.000000
                                                         0.200600       0.000000
                                                         0.079510       0.000000

                          4       3    3px            2200.000000       0.000000
                                                       521.400000       0.000000
                                                       169.000000       0.000000
                                                        64.050000       0.000000
                                                        26.720000       0.000000
                                                        11.830000       0.000000
                                                         5.378000       0.000000
                                                         2.482000       0.000000
                                                         1.116000       0.000000
                                                         0.484800       0.576625
                                                         0.200600       0.000000
                                                         0.079510       0.000000
                          4       3    3py            2200.000000       0.000000
                                                       521.400000       0.000000
                                                       169.000000       0.000000
                                                        64.050000       0.000000
                                                        26.720000       0.000000
                                                        11.830000       0.000000
                                                         5.378000       0.000000
                                                         2.482000       0.000000
                                                         1.116000       0.000000
                                                         0.484800       0.576625
                                                         0.200600       0.000000
                                                         0.079510       0.000000
                          4       3    3pz            2200.000000       0.000000
                                                       521.400000       0.000000
                                                       169.000000       0.000000
                                                        64.050000       0.000000
                                                        26.720000       0.000000
                                                        11.830000       0.000000
                                                         5.378000       0.000000
                                                         2.482000       0.000000
                                                         1.116000       0.000000
                                                         0.484800       0.576625
                                                         0.200600       0.000000
                                                         0.079510       0.000000

                          4       4    4px            2200.000000      -1.306993
                                                       521.400000      -1.883748
                                                       169.000000      -2.500706
                                                        64.050000      -2.954633
                                                        26.720000      -2.968115
                                                        11.830000      -2.301109
                                                         5.378000      -1.258236
                                                         2.482000      -0.390671
                                                         1.116000       0.177008
                                                         0.484800       0.234734
                                                         0.200600       0.089747
                                                         0.079510       0.011126
                          4       4    4py            2200.000000      -1.306993
                                                       521.400000      -1.883748
                                                       169.000000      -2.500706
                                                        64.050000      -2.954633
                                                        26.720000      -2.968115
                                                        11.830000      -2.301109
                                                         5.378000      -1.258236
                                                         2.482000      -0.390671
                                                         1.116000       0.177008
                                                         0.484800       0.234734
                                                         0.200600       0.089747
                                                         0.079510       0.011126
                          4       4    4pz            2200.000000      -1.306993
                                                       521.400000      -1.883748
                                                       169.000000      -2.500706
                                                        64.050000      -2.954633
                                                        26.720000      -2.968115
                                                        11.830000      -2.301109
                                                         5.378000      -1.258236
                                                         2.482000      -0.390671
                                                         1.116000       0.177008
                                                         0.484800       0.234734
                                                         0.200600       0.089747
                                                         0.079510       0.011126

                          4       5    5px            2200.000000       0.000000
                                                       521.400000       0.000000
                                                       169.000000       0.000000
                                                        64.050000       0.000000
                                                        26.720000       0.000000
                                                        11.830000       0.000000
                                                         5.378000       0.000000
                                                         2.482000       0.000000
                                                         1.116000       0.000000
                                                         0.484800       0.000000
                                                         0.200600       0.191361
                                                         0.079510       0.000000
                          4       5    5py            2200.000000       0.000000
                                                       521.400000       0.000000
                                                       169.000000       0.000000
                                                        64.050000       0.000000
                                                        26.720000       0.000000
                                                        11.830000       0.000000
                                                         5.378000       0.000000
                                                         2.482000       0.000000
                                                         1.116000       0.000000
                                                         0.484800       0.000000
                                                         0.200600       0.191361
                                                         0.079510       0.000000
                          4       5    5pz            2200.000000       0.000000
                                                       521.400000       0.000000
                                                       169.000000       0.000000
                                                        64.050000       0.000000
                                                        26.720000       0.000000
                                                        11.830000       0.000000
                                                         5.378000       0.000000
                                                         2.482000       0.000000
                                                         1.116000       0.000000
                                                         0.484800       0.000000
                                                         0.200600       0.191361
                                                         0.079510       0.000000

                          4       6    6px            2200.000000       0.000000
                                                       521.400000       0.000000
                                                       169.000000       0.000000
                                                        64.050000       0.000000
                                                        26.720000       0.000000
                                                        11.830000       0.000000
                                                         5.378000       0.000000
                                                         2.482000       0.000000
                                                         1.116000       0.000000
                                                         0.484800       0.000000
                                                         0.200600       0.000000
                                                         0.079510       0.060182
                          4       6    6py            2200.000000       0.000000
                                                       521.400000       0.000000
                                                       169.000000       0.000000
                                                        64.050000       0.000000
                                                        26.720000       0.000000
                                                        11.830000       0.000000
                                                         5.378000       0.000000
                                                         2.482000       0.000000
                                                         1.116000       0.000000
                                                         0.484800       0.000000
                                                         0.200600       0.000000
                                                         0.079510       0.060182
                          4       6    6pz            2200.000000       0.000000
                                                       521.400000       0.000000
                                                       169.000000       0.000000
                                                        64.050000       0.000000
                                                        26.720000       0.000000
                                                        11.830000       0.000000
                                                         5.378000       0.000000
                                                         2.482000       0.000000
                                                         1.116000       0.000000
                                                         0.484800       0.000000
                                                         0.200600       0.000000
                                                         0.079510       0.060182

                          5       1    1s          5481000.000000       0.152860
                                                    820600.000000       0.286055
                                                    186700.000000       0.496155
                                                     52880.000000       0.813250
                                                     17250.000000       1.280498
                                                      6226.000000       1.940164
                                                      2429.000000       2.844106
                                                      1007.000000       3.984527
                                                       439.500000       5.229289
                                                       199.800000       6.162321
                                                        93.920000       6.006109
                                                        45.340000       4.148629
                                                        22.150000       1.526935
                                                        10.340000       0.170949
                                                         5.119000      -0.001093
                                                         2.553000       0.002431
                                                         1.282000      -0.000444
                                                         0.545000       0.000085
                                                         0.241100      -0.000024
                                                         0.103500       0.000003

                          5       2    2s          5481000.000000      -0.042217
                                                    820600.000000      -0.079026
                                                    186700.000000      -0.137029
                                                     52880.000000      -0.224805
                                                     17250.000000      -0.354096
                                                      6226.000000      -0.538410
                                                      2429.000000      -0.793719
                                                      1007.000000      -1.130348
                                                       439.500000      -1.530851
                                                       199.800000      -1.933828
                                                        93.920000      -2.155037
                                                        45.340000      -1.952555
                                                        22.150000      -1.016918
                                                        10.340000       0.332903
                                                         5.119000       1.045101
                                                         2.553000       0.693368
                                                         1.282000       0.134693
                                                         0.545000       0.003566
                                                         0.241100       0.000097
                                                         0.103500       0.000029

                          5       3    3s          5481000.000000       0.000000
                                                    820600.000000       0.000000
                                                    186700.000000       0.000000
                                                     52880.000000       0.000000
                                                     17250.000000       0.000000
                                                      6226.000000       0.000000
                                                      2429.000000       0.000000
                                                      1007.000000       0.000000
                                                       439.500000       0.000000
                                                       199.800000       0.000000
                                                        93.920000       0.000000
                                                        45.340000       0.000000
                                                        22.150000       0.000000
                                                        10.340000       0.000000
                                                         5.119000       0.000000
                                                         2.553000       0.000000
                                                         1.282000       0.858670
                                                         0.545000       0.000000
                                                         0.241100       0.000000
                                                         0.103500       0.000000

                          5       4    4s          5481000.000000       0.000000
                                                    820600.000000       0.000000
                                                    186700.000000       0.000000
                                                     52880.000000       0.000000
                                                     17250.000000       0.000000
                                                      6226.000000       0.000000
                                                      2429.000000       0.000000
                                                      1007.000000       0.000000
                                                       439.500000       0.000000
                                                       199.800000       0.000000
                                                        93.920000       0.000000
                                                        45.340000       0.000000
                                                        22.150000       0.000000
                                                        10.340000       0.000000
                                                         5.119000       0.000000
                                                         2.553000       0.000000
                                                         1.282000       0.000000
                                                         0.545000       0.452072
                                                         0.241100       0.000000
                                                         0.103500       0.000000

                          5       5    5s          5481000.000000       0.000000
                                                    820600.000000       0.000000
                                                    186700.000000       0.000000
                                                     52880.000000       0.000000
                                                     17250.000000       0.000000
                                                      6226.000000       0.000000
                                                      2429.000000       0.000000
                                                      1007.000000       0.000000
                                                       439.500000       0.000000
                                                       199.800000       0.000000
                                                        93.920000       0.000000
                                                        45.340000       0.000000
                                                        22.150000       0.000000
                                                        10.340000       0.000000
                                                         5.119000       0.000000
                                                         2.553000       0.000000
                                                         1.282000       0.000000
                                                         0.545000       0.000000
                                                         0.241100       0.245221
                                                         0.103500       0.000000

                          5       6    6s          5481000.000000       0.012257
                                                    820600.000000       0.022931
                                                    186700.000000       0.039797
                                                     52880.000000       0.065215
                                                     17250.000000       0.102882
                                                      6226.000000       0.156194
                                                      2429.000000       0.230890
                                                      1007.000000       0.328434
                                                       439.500000       0.447494
                                                       199.800000       0.566729
                                                        93.920000       0.642780
                                                        45.340000       0.593937
                                                        22.150000       0.327133
                                                        10.340000      -0.120415
                                                         5.119000      -0.409703
                                                         2.553000      -0.447691
                                                         1.282000      -0.117201
                                                         0.545000       0.191314
                                                         0.241100       0.150538
                                                         0.103500       0.026072

                          5       7    7s          5481000.000000       0.000000
                                                    820600.000000       0.000000
                                                    186700.000000       0.000000
                                                     52880.000000       0.000000
                                                     17250.000000       0.000000
                                                      6226.000000       0.000000
                                                      2429.000000       0.000000
                                                      1007.000000       0.000000
                                                       439.500000       0.000000
                                                       199.800000       0.000000
                                                        93.920000       0.000000
                                                        45.340000       0.000000
                                                        22.150000       0.000000
                                                        10.340000       0.000000
                                                         5.119000       0.000000
                                                         2.553000       0.000000
                                                         1.282000       0.000000
                                                         0.545000       0.000000
                                                         0.241100       0.000000
                                                         0.103500       0.130051

                          6       1    1fx3              0.118800       0.012198
                          6       1    1fx2y             0.118800       0.027276
                          6       1    1fx2z             0.118800       0.027276
                          6       1    1fxy2             0.118800       0.027276
                          6       1    1fxyz             0.118800       0.047243
                          6       1    1fxz2             0.118800       0.027276
                          6       1    1fy3              0.118800       0.012198
                          6       1    1fy2z             0.118800       0.027276
                          6       1    1fyz2             0.118800       0.027276
                          6       1    1fz3              0.118800       0.012198

                          7       1    1dx2              3.203000      12.622172
                                                         1.281000       0.000000
                                                         0.512000       0.000000
                                                         0.205000       0.000000
                          7       1    1dxy              3.203000      21.862243
                                                         1.281000       0.000000
                                                         0.512000       0.000000
                                                         0.205000       0.000000
                          7       1    1dxz              3.203000      21.862243
                                                         1.281000       0.000000
                                                         0.512000       0.000000
                                                         0.205000       0.000000
                          7       1    1dy2              3.203000      12.622172
                                                         1.281000       0.000000
                                                         0.512000       0.000000
                                                         0.205000       0.000000
                          7       1    1dyz              3.203000      21.862243
                                                         1.281000       0.000000
                                                         0.512000       0.000000
                                                         0.205000       0.000000
                          7       1    1dz2              3.203000      12.622172
                                                         1.281000       0.000000
                                                         0.512000       0.000000
                                                         0.205000       0.000000

                          7       2    2dx2              3.203000       0.000000
                                                         1.281000       2.538753
                                                         0.512000       0.000000
                                                         0.205000       0.000000
                          7       2    2dxy              3.203000       0.000000
                                                         1.281000       4.397249
                                                         0.512000       0.000000
                                                         0.205000       0.000000
                          7       2    2dxz              3.203000       0.000000
                                                         1.281000       4.397249
                                                         0.512000       0.000000
                                                         0.205000       0.000000
                          7       2    2dy2              3.203000       0.000000
                                                         1.281000       2.538753
                                                         0.512000       0.000000
                                                         0.205000       0.000000
                          7       2    2dyz              3.203000       0.000000
                                                         1.281000       4.397249
                                                         0.512000       0.000000
                                                         0.205000       0.000000
                          7       2    2dz2              3.203000       0.000000
                                                         1.281000       2.538753
                                                         0.512000       0.000000
                                                         0.205000       0.000000

                          7       3    3dx2              3.203000       0.000000
                                                         1.281000       0.000000
                                                         0.512000       0.510072
                                                         0.205000       0.000000
                          7       3    3dxy              3.203000       0.000000
                                                         1.281000       0.000000
                                                         0.512000       0.883471
                                                         0.205000       0.000000
                          7       3    3dxz              3.203000       0.000000
                                                         1.281000       0.000000
                                                         0.512000       0.883471
                                                         0.205000       0.000000
                          7       3    3dy2              3.203000       0.000000
                                                         1.281000       0.000000
                                                         0.512000       0.510072
                                                         0.205000       0.000000
                          7       3    3dyz              3.203000       0.000000
                                                         1.281000       0.000000
                                                         0.512000       0.883471
                                                         0.205000       0.000000
                          7       3    3dz2              3.203000       0.000000
                                                         1.281000       0.000000
                                                         0.512000       0.510072
                                                         0.205000       0.000000

                          7       4    4dx2              3.203000       0.000000
                                                         1.281000       0.000000
                                                         0.512000       0.000000
                                                         0.205000       0.102797
                          7       4    4dxy              3.203000       0.000000
                                                         1.281000       0.000000
                                                         0.512000       0.000000
                                                         0.205000       0.178049
                          7       4    4dxz              3.203000       0.000000
                                                         1.281000       0.000000
                                                         0.512000       0.000000
                                                         0.205000       0.178049
                          7       4    4dy2              3.203000       0.000000
                                                         1.281000       0.000000
                                                         0.512000       0.000000
                                                         0.205000       0.102797
                          7       4    4dyz              3.203000       0.000000
                                                         1.281000       0.000000
                                                         0.512000       0.000000
                                                         0.205000       0.178049
                          7       4    4dz2              3.203000       0.000000
                                                         1.281000       0.000000
                                                         0.512000       0.000000
                                                         0.205000       0.102797

                          8       1    1gx4              0.220000       0.017302
                          8       1    1gx3y             0.220000       0.045777
                          8       1    1gx3z             0.220000       0.045777
                          8       1    1gx2y2            0.220000       0.059098
                          8       1    1gx2yz            0.220000       0.102360
                          8       1    1gx2z2            0.220000       0.059098
                          8       1    1gxy3             0.220000       0.045777
                          8       1    1gxy2z            0.220000       0.102360
                          8       1    1gxyz2            0.220000       0.102360
                          8       1    1gxz3             0.220000       0.045777
                          8       1    1gy4              0.220000       0.017302
                          8       1    1gy3z             0.220000       0.045777
                          8       1    1gy2z2            0.220000       0.059098
                          8       1    1gyz3             0.220000       0.045777
                          8       1    1gz4              0.220000       0.017302

                          9       1    1fx3              1.096000       1.809373
                                                         0.529000       0.000000
                                                         0.255000       0.000000
                          9       1    1fx2y             1.096000       4.045882
                                                         0.529000       0.000000
                                                         0.255000       0.000000
                          9       1    1fx2z             1.096000       4.045882
                                                         0.529000       0.000000
                                                         0.255000       0.000000
                          9       1    1fxy2             1.096000       4.045882
                                                         0.529000       0.000000
                                                         0.255000       0.000000
                          9       1    1fxyz             1.096000       7.007673
                                                         0.529000       0.000000
                                                         0.255000       0.000000
                          9       1    1fxz2             1.096000       4.045882
                                                         0.529000       0.000000
                                                         0.255000       0.000000
                          9       1    1fy3              1.096000       1.809373
                                                         0.529000       0.000000
                                                         0.255000       0.000000
                          9       1    1fy2z             1.096000       4.045882
                                                         0.529000       0.000000
                                                         0.255000       0.000000
                          9       1    1fyz2             1.096000       4.045882
                                                         0.529000       0.000000
                                                         0.255000       0.000000
                          9       1    1fz3              1.096000       1.809373
                                                         0.529000       0.000000
                                                         0.255000       0.000000

                          9       2    2fx3              1.096000       0.000000
                                                         0.529000       0.351342
                                                         0.255000       0.000000
                          9       2    2fx2y             1.096000       0.000000
                                                         0.529000       0.785624
                                                         0.255000       0.000000
                          9       2    2fx2z             1.096000       0.000000
                                                         0.529000       0.785624
                                                         0.255000       0.000000
                          9       2    2fxy2             1.096000       0.000000
                                                         0.529000       0.785624
                                                         0.255000       0.000000
                          9       2    2fxyz             1.096000       0.000000
                                                         0.529000       1.360741
                                                         0.255000       0.000000
                          9       2    2fxz2             1.096000       0.000000
                                                         0.529000       0.785624
                                                         0.255000       0.000000
                          9       2    2fy3              1.096000       0.000000
                                                         0.529000       0.351342
                                                         0.255000       0.000000
                          9       2    2fy2z             1.096000       0.000000
                                                         0.529000       0.785624
                                                         0.255000       0.000000
                          9       2    2fyz2             1.096000       0.000000
                                                         0.529000       0.785624
                                                         0.255000       0.000000
                          9       2    2fz3              1.096000       0.000000
                                                         0.529000       0.351342
                                                         0.255000       0.000000

                          9       3    3fx3              1.096000       0.000000
                                                         0.529000       0.000000
                                                         0.255000       0.068025
                          9       3    3fx2y             1.096000       0.000000
                                                         0.529000       0.000000
                                                         0.255000       0.152109
                          9       3    3fx2z             1.096000       0.000000
                                                         0.529000       0.000000
                                                         0.255000       0.152109
                          9       3    3fxy2             1.096000       0.000000
                                                         0.529000       0.000000
                                                         0.255000       0.152109
                          9       3    3fxyz             1.096000       0.000000
                                                         0.529000       0.000000
                                                         0.255000       0.263460
                          9       3    3fxz2             1.096000       0.000000
                                                         0.529000       0.000000
                                                         0.255000       0.152109
                          9       3    3fy3              1.096000       0.000000
                                                         0.529000       0.000000
                                                         0.255000       0.068025
                          9       3    3fy2z             1.096000       0.000000
                                                         0.529000       0.000000
                                                         0.255000       0.152109
                          9       3    3fyz2             1.096000       0.000000
                                                         0.529000       0.000000
                                                         0.255000       0.152109
                          9       3    3fz3              1.096000       0.000000
                                                         0.529000       0.000000
                                                         0.255000       0.068025

                         10       1    1gx4              1.071000       1.343868
                                                         0.463000       0.000000
                         10       1    1gx3y             1.071000       3.555539
                                                         0.463000       0.000000
                         10       1    1gx3z             1.071000       3.555539
                                                         0.463000       0.000000
                         10       1    1gx2y2            1.071000       4.590182
                                                         0.463000       0.000000
                         10       1    1gx2yz            1.071000       7.950428
                                                         0.463000       0.000000
                         10       1    1gx2z2            1.071000       4.590182
                                                         0.463000       0.000000
                         10       1    1gxy3             1.071000       3.555539
                                                         0.463000       0.000000
                         10       1    1gxy2z            1.071000       7.950428
                                                         0.463000       0.000000
                         10       1    1gxyz2            1.071000       7.950428
                                                         0.463000       0.000000
                         10       1    1gxz3             1.071000       3.555539
                                                         0.463000       0.000000
                         10       1    1gy4              1.071000       1.343868
                                                         0.463000       0.000000
                         10       1    1gy3z             1.071000       3.555539
                                                         0.463000       0.000000
                         10       1    1gy2z2            1.071000       4.590182
                                                         0.463000       0.000000
                         10       1    1gyz3             1.071000       3.555539
                                                         0.463000       0.000000
                         10       1    1gz4              1.071000       1.343868
                                                         0.463000       0.000000

                         10       2    2gx4              1.071000       0.000000
                                                         0.463000       0.133901
                         10       2    2gx3y             1.071000       0.000000
                                                         0.463000       0.354268
                         10       2    2gx3z             1.071000       0.000000
                                                         0.463000       0.354268
                         10       2    2gx2y2            1.071000       0.000000
                                                         0.463000       0.457358
                         10       2    2gx2yz            1.071000       0.000000
                                                         0.463000       0.792168
                         10       2    2gx2z2            1.071000       0.000000
                                                         0.463000       0.457358
                         10       2    2gxy3             1.071000       0.000000
                                                         0.463000       0.354268
                         10       2    2gxy2z            1.071000       0.000000
                                                         0.463000       0.792168
                         10       2    2gxyz2            1.071000       0.000000
                                                         0.463000       0.792168
                         10       2    2gxz3             1.071000       0.000000
                                                         0.463000       0.354268
                         10       2    2gy4              1.071000       0.000000
                                                         0.463000       0.133901
                         10       2    2gy3z             1.071000       0.000000
                                                         0.463000       0.354268
                         10       2    2gy2z2            1.071000       0.000000
                                                         0.463000       0.457358
                         10       2    2gyz3             1.071000       0.000000
                                                         0.463000       0.354268
                         10       2    2gz4              1.071000       0.000000
                                                         0.463000       0.133901

                         11       1    1hx5              0.472000       0.064663
                         11       1    1hx4y             0.472000       0.193989
                         11       1    1hx4z             0.472000       0.193989
                         11       1    1hx3y2            0.472000       0.296323
                         11       1    1hx3yz            0.472000       0.513246
                         11       1    1hx3z2            0.472000       0.296323
                         11       1    1hx2y3            0.472000       0.296323
                         11       1    1hx2y2z           0.472000       0.662598
                         11       1    1hx2yz2           0.472000       0.662598
                         11       1    1hx2z3            0.472000       0.296323
                         11       1    1hxy4             0.472000       0.193989
                         11       1    1hxy3z            0.472000       0.513246
                         11       1    1hxy2z2           0.472000       0.662598
                         11       1    1hxyz3            0.472000       0.513246
                         11       1    1hxz4             0.472000       0.193989
                         11       1    1hy5              0.472000       0.064663
                         11       1    1hy4z             0.472000       0.193989
                         11       1    1hy3z2            0.472000       0.296323
                         11       1    1hy2z3            0.472000       0.296323
                         11       1    1hyz4             0.472000       0.193989
                         11       1    1hz5              0.472000       0.064663

                         12       1    1hx5              0.872000       0.475360
                         12       1    1hx4y             0.872000       1.426080
                         12       1    1hx4z             0.872000       1.426080
                         12       1    1hx3y2            0.872000       2.178374
                         12       1    1hx3yz            0.872000       3.773054
                         12       1    1hx3z2            0.872000       2.178374
                         12       1    1hx2y3            0.872000       2.178374
                         12       1    1hx2y2z           0.872000       4.870992
                         12       1    1hx2yz2           0.872000       4.870992
                         12       1    1hx2z3            0.872000       2.178374
                         12       1    1hxy4             0.872000       1.426080
                         12       1    1hxy3z            0.872000       3.773054
                         12       1    1hxy2z2           0.872000       4.870992
                         12       1    1hxyz3            0.872000       3.773054
                         12       1    1hxz4             0.872000       1.426080
                         12       1    1hy5              0.872000       0.475360
                         12       1    1hy4z             0.872000       1.426080
                         12       1    1hy3z2            0.872000       2.178374
                         12       1    1hy2z3            0.872000       2.178374
                         12       1    1hyz4             0.872000       1.426080
                         12       1    1hz5              0.872000       0.475360

     RI Auxiliary Basis Set                                    aug-cc-pV5Z-OPTRI

       Number of orbital shell sets:                                          24
       Number of orbital shells:                                              24
       Number of primitive Cartesian functions:                               24
       Number of Cartesian basis functions:                                  195
       Number of spherical basis functions:                                  128
       Norm type:                                                              2

       Normalised Cartesian orbitals:

                        Set   Shell   Orbital            Exponent    Coefficient

                          1       1    1s                0.155161       0.176196

                          2       1    1dx2              0.292382       0.191348
                          2       1    1dxy              0.292382       0.331424
                          2       1    1dxz              0.292382       0.331424
                          2       1    1dy2              0.292382       0.191348
                          2       1    1dyz              0.292382       0.331424
                          2       1    1dz2              0.292382       0.191348

                          3       1    1px               0.314817       0.336134
                          3       1    1py               0.314817       0.336134
                          3       1    1pz               0.314817       0.336134

                          4       1    1gx4              0.319099       0.048109
                          4       1    1gx3y             0.319099       0.127286
                          4       1    1gx3z             0.319099       0.127286
                          4       1    1gx2y2            0.319099       0.164325
                          4       1    1gx2yz            0.319099       0.284619
                          4       1    1gx2z2            0.319099       0.164325
                          4       1    1gxy3             0.319099       0.127286
                          4       1    1gxy2z            0.319099       0.284619
                          4       1    1gxyz2            0.319099       0.284619
                          4       1    1gxz3             0.319099       0.127286
                          4       1    1gy4              0.319099       0.048109
                          4       1    1gy3z             0.319099       0.127286
                          4       1    1gy2z2            0.319099       0.164325
                          4       1    1gyz3             0.319099       0.127286
                          4       1    1gz4              0.319099       0.048109

                          5       1    1s                0.360347       0.331475

                          6       1    1dx2              0.623460       0.719987
                          6       1    1dxy              0.623460       1.247054
                          6       1    1dxz              0.623460       1.247054
                          6       1    1dy2              0.623460       0.719987
                          6       1    1dyz              0.623460       1.247054
                          6       1    1dz2              0.623460       0.719987

                          7       1    1hx5              0.641004       0.174840
                          7       1    1hx4y             0.641004       0.524521
                          7       1    1hx4z             0.641004       0.524521
                          7       1    1hx3y2            0.641004       0.801219
                          7       1    1hx3yz            0.641004       1.387752
                          7       1    1hx3z2            0.641004       0.801219
                          7       1    1hx2y3            0.641004       0.801219
                          7       1    1hx2y2z           0.641004       1.791580
                          7       1    1hx2yz2           0.641004       1.791580
                          7       1    1hx2z3            0.641004       0.801219
                          7       1    1hxy4             0.641004       0.524521
                          7       1    1hxy3z            0.641004       1.387752
                          7       1    1hxy2z2           0.641004       1.791580
                          7       1    1hxyz3            0.641004       1.387752
                          7       1    1hxz4             0.641004       0.524521
                          7       1    1hy5              0.641004       0.174840
                          7       1    1hy4z             0.641004       0.524521
                          7       1    1hy3z2            0.641004       0.801219
                          7       1    1hy2z3            0.641004       0.801219
                          7       1    1hyz4             0.641004       0.524521
                          7       1    1hz5              0.641004       0.174840

                          8       1    1gx4              0.693087       0.406071
                          8       1    1gx3y             0.693087       1.074362
                          8       1    1gx3z             0.693087       1.074362
                          8       1    1gx2y2            0.693087       1.386996
                          8       1    1gx2yz            0.693087       2.402347
                          8       1    1gx2z2            0.693087       1.386996
                          8       1    1gxy3             0.693087       1.074362
                          8       1    1gxy2z            0.693087       2.402347
                          8       1    1gxyz2            0.693087       2.402347
                          8       1    1gxz3             0.693087       1.074362
                          8       1    1gy4              0.693087       0.406071
                          8       1    1gy3z             0.693087       1.074362
                          8       1    1gy2z2            0.693087       1.386996
                          8       1    1gyz3             0.693087       1.074362
                          8       1    1gz4              0.693087       0.406071

                          9       1    1px               0.725771       0.954860
                          9       1    1py               0.725771       0.954860
                          9       1    1pz               0.725771       0.954860

                         10       1    1s                0.823259       0.615974

                         11       1    1ix6              0.967601       0.395402
                         11       1    1ix5y             0.967601       1.311400
                         11       1    1ix5z             0.967601       1.311400
                         11       1    1ix4y2            0.967601       2.271412
                         11       1    1ix4yz            0.967601       3.934201
                         11       1    1ix4z2            0.967601       2.271412
                         11       1    1ix3y3            0.967601       2.687571
                         11       1    1ix3y2z           0.967601       6.009592
                         11       1    1ix3yz2           0.967601       6.009592
                         11       1    1ix3z3            0.967601       2.687571
                         11       1    1ix2y4            0.967601       2.271412
                         11       1    1ix2y3z           0.967601       6.009592
                         11       1    1ix2y2z2          0.967601       7.758350
                         11       1    1ix2yz3           0.967601       6.009592
                         11       1    1ix2z4            0.967601       2.271412
                         11       1    1ixy5             0.967601       1.311400
                         11       1    1ixy4z            0.967601       3.934201
                         11       1    1ixy3z2           0.967601       6.009592
                         11       1    1ixy2z3           0.967601       6.009592
                         11       1    1ixyz4            0.967601       3.934201
                         11       1    1ixz5             0.967601       1.311400
                         11       1    1iy6              0.967601       0.395402
                         11       1    1iy5z             0.967601       1.311400
                         11       1    1iy4z2            0.967601       2.271412
                         11       1    1iy3z3            0.967601       2.687571
                         11       1    1iy2z4            0.967601       2.271412
                         11       1    1iyz5             0.967601       1.311400
                         11       1    1iz6              0.967601       0.395402

                         12       1    1hx5              1.396358       2.195754
                         12       1    1hx4y             1.396358       6.587262
[...]
   418 Broy./Diag. 0.10E+00    7.9     0.00017152      -473.1604142819 -5.71E-05
   419 Broy./Diag. 0.10E+00    7.8     0.00008252      -473.1603932209  2.11E-05
   420 Broy./Diag. 0.10E+00    7.8     0.00035515      -473.1604138236 -2.06E-05
   421 Broy./Diag. 0.10E+00    7.7     0.00012013      -473.1605085126 -9.47E-05
   422 Broy./Diag. 0.10E+00    7.8     0.00021038      -473.1605417101 -3.32E-05
   423 Broy./Diag. 0.10E+00    7.8     0.00007136      -473.1604947587  4.70E-05
   424 Broy./Diag. 0.10E+00    7.8     0.00012324      -473.1604664268  2.83E-05
   425 Broy./Diag. 0.10E+00    7.8     0.00009368      -473.1604671576 -7.31E-07
   426 Broy./Diag. 0.10E+00    7.8     0.00009263      -473.1604471125  2.00E-05
   427 Broy./Diag. 0.10E+00    7.8     0.00004327      -473.1604244512  2.27E-05
   428 Broy./Diag. 0.10E+00    7.9     0.00005923      -473.1604443076 -1.99E-05
   429 Broy./Diag. 0.10E+00    7.8     0.00005105      -473.1604597856 -1.55E-05
   430 Broy./Diag. 0.10E+00    7.8     0.00005636      -473.1604571380  2.65E-06
   431 Broy./Diag. 0.10E+00    7.8     0.00014388      -473.1604598393 -2.70E-06
   432 Broy./Diag. 0.10E+00    7.8     0.00002420      -473.1604609201 -1.08E-06
   433 Broy./Diag. 0.10E+00    7.8     0.00005480      -473.1604519899  8.93E-06
   434 Broy./Diag. 0.10E+00    7.8     0.00003459      -473.1604482483  3.74E-06
   435 Broy./Diag. 0.10E+00    7.8     0.00000807      -473.1604446361  3.61E-06
   436 Broy./Diag. 0.10E+00    7.9     0.00001548      -473.1604309029  1.37E-05
   437 Broy./Diag. 0.10E+00    7.8     0.00000839      -473.1604271237  3.78E-06
   438 Broy./Diag. 0.10E+00    7.8     0.00002088      -473.1604282163 -1.09E-06
   439 Broy./Diag. 0.10E+00    7.8     0.00001817      -473.1604294329 -1.22E-06
   440 Broy./Diag. 0.10E+00    7.8     0.00001525      -473.1604285591  8.74E-07
   441 Broy./Diag. 0.10E+00    8.0     0.00001265      -473.1604279024  6.57E-07
   442 Broy./Diag. 0.10E+00    7.9     0.00001902      -473.1604318667 -3.96E-06
   443 Broy./Diag. 0.10E+00    7.8     0.00001773      -473.1604336463 -1.78E-06
   444 Broy./Diag. 0.10E+00    7.8     0.00002204      -473.1604323058  1.34E-06
   445 Broy./Diag. 0.10E+00    7.8     0.00005002      -473.1604326668 -3.61E-07
   446 Broy./Diag. 0.10E+00    7.7     0.00008224      -473.1604339673 -1.30E-06
   447 Broy./Diag. 0.10E+00    7.7     0.00013144      -473.1604342395 -2.72E-07
   448 Broy./Diag. 0.10E+00    7.8     0.00020571      -473.1604337380  5.01E-07
   449 Broy./Diag. 0.10E+00    7.8     0.00032351      -473.1604326734  1.06E-06
   450 Broy./Diag. 0.10E+00    7.8     0.00051727      -473.1604315949  1.08E-06
   451 Broy./Diag. 0.10E+00    7.8     0.00086950      -473.1604325601 -9.65E-07
   452 Broy./Diag. 0.10E+00    7.8     0.00146720      -473.1604327259 -1.66E-07
   453 Broy./Diag. 0.10E+00    7.8     0.00233407      -473.1604328448 -1.19E-07
   454 Broy./Diag. 0.10E+00    7.8     0.00385090      -473.1604344370 -1.59E-06
   455 Broy./Diag. 0.10E+00    7.8     0.00635277      -473.1604376929 -3.26E-06
   456 Broy./Diag. 0.10E+00    7.8     0.01041668      -473.1604396646 -1.97E-06
   457 Broy./Diag. 0.10E+00    7.9     0.01692166      -473.1604228718  1.68E-05
   458 Broy./Diag. 0.10E+00    7.8     0.02731562      -473.1603546309  6.82E-05
   459 Broy./Diag. 0.10E+00    7.8     0.04379274      -473.1601804962  1.74E-04
   460 Broy./Diag. 0.10E+00    7.8     0.06836386      -473.1597683915  4.12E-04
   461 Broy./Diag. 0.10E+00    7.8     0.09800328      -473.1587473342  1.02E-03
   462 Broy./Diag. 0.10E+00    7.9     0.11589377      -473.1564061235  2.34E-03
   463 Broy./Diag. 0.10E+00    7.8     0.13968972      -473.1519475302  4.46E-03
   464 Broy./Diag. 0.10E+00    7.9     0.16480187      -473.1454946633  6.45E-03
   465 Broy./Diag. 0.10E+00    7.9     0.14797167      -473.1387460032  6.75E-03
   466 Broy./Diag. 0.10E+00    7.8     0.11030108      -473.1331026043  5.64E-03
   467 Broy./Diag. 0.10E+00    7.8     0.07360896      -473.1288563513  4.25E-03
   468 Broy./Diag. 0.10E+00    7.8     0.05517166      -473.1259078395  2.95E-03
   469 Broy./Diag. 0.10E+00    7.8     0.04539745      -473.1240364374  1.87E-03
   470 Broy./Diag. 0.10E+00    7.8     0.03550389      -473.1229276177  1.11E-03
   471 Broy./Diag. 0.10E+00    7.8     0.02757221      -473.1224100227  5.18E-04
   472 Broy./Diag. 0.10E+00    7.9     0.02464478      -473.1232292955 -8.19E-04
   473 Broy./Diag. 0.10E+00    7.8     0.02050224      -473.1228797595  3.50E-04
   474 Broy./Diag. 0.10E+00    7.9     0.01635361      -473.1241534158 -1.27E-03
   475 Broy./Diag. 0.10E+00    7.8     0.04538787      -473.1284495590 -4.30E-03
   476 Broy./Diag. 0.10E+00    7.8     0.17177457      -473.1132284909  1.52E-02
   477 Broy./Diag. 0.10E+00    7.8     0.18405443      -472.9531422552  1.60E-01
   478 Broy./Diag. 0.10E+00    7.9     0.09714508      -472.8264472221  1.27E-01
   479 Broy./Diag. 0.10E+00    7.8     0.10348006      -472.9274984394 -1.01E-01
   480 Broy./Diag. 0.10E+00    7.7     0.12028896      -472.9296457176 -2.15E-03
   481 Broy./Diag. 0.10E+00    7.8     0.17308953      -473.0641450657 -1.34E-01
   482 Broy./Diag. 0.10E+00    7.7     0.35395857      -473.0862053172 -2.21E-02
   483 Broy./Diag. 0.10E+00    7.7     0.15081031      -472.9982890148  8.79E-02
   484 Broy./Diag. 0.10E+00    7.8     0.08152621      -473.0551734298 -5.69E-02
   485 Broy./Diag. 0.10E+00    7.7     0.02792866      -473.0965025195 -4.13E-02
   486 Broy./Diag. 0.10E+00    7.8     0.04147195      -473.1035069623 -7.00E-03
   487 Broy./Diag. 0.10E+00    7.7     0.03832480      -473.1695686492 -6.61E-02
   488 Broy./Diag. 0.10E+00    7.8     0.10882144      -473.0748104992  9.48E-02
   489 Broy./Diag. 0.10E+00    7.8     0.08861165      -472.9991440792  7.57E-02
   490 Broy./Diag. 0.10E+00    7.8     0.17423558      -473.0455981024 -4.65E-02
   491 Broy./Diag. 0.10E+00    7.8     0.19448383      -473.0543181076 -8.72E-03
   492 Broy./Diag. 0.10E+00    7.8     0.09170944      -473.1616573734 -1.07E-01
   493 Broy./Diag. 0.10E+00    7.8     0.04460233      -473.1785290505 -1.69E-02
   494 Broy./Diag. 0.10E+00    7.8     0.07895808      -473.0772395678  1.01E-01
   495 Broy./Diag. 0.10E+00    7.8     0.22593309      -473.0760804999  1.16E-03
   496 Broy./Diag. 0.10E+00    7.8     0.44513076      -473.4487482216 -3.73E-01
   497 Broy./Diag. 0.10E+00    7.8     0.13087301      -473.7042779861 -2.56E-01
   498 Broy./Diag. 0.10E+00    7.8     0.08635076      -473.6113704956  9.29E-02
   499 Broy./Diag. 0.10E+00    7.8     0.05431082      -473.5281409354  8.32E-02
   500 Broy./Diag. 0.10E+00    7.8     0.08288151      -473.3967117283  1.31E-01

  Leaving inner SCF loop after reaching   500 steps.


  Electronic density on regular grids:        -13.2231730724       10.7768269276
  Core density on regular grids:               24.0000000000        0.0000000000
  Hard and soft densities (Lebedev):          -43.0382227703      -32.3135108554
  Total Rho_soft + Rho1_hard - Rho1_soft      -23.9478849873
  Total charge density (r-space):               0.0521150127
  Total Rho_soft + Rho0_soft (g-space):         0.0521148190

  Overlap energy of the core charge distribution:               0.00000038248801
  Self energy of the core charge distribution:               -244.85361235670862
  Core Hamiltonian energy:                                   -235.15519969234828
  Hartree energy:                                              39.04730561325520
  Exchange-correlation energy:                                 -5.03663302223264
  Hartree-Fock Exchange energy:                                -8.27716042829199

  GAPW| Exc from hard and soft atomic rho1:                   -20.66217109044215
  GAPW| local Eh = 1 center integrals:                          1.54075886598372

  Total energy:                                              -473.39671172829674

 *******************************************************************************
 *   ___                                                                       *
 *  /   \                                                                      *
 * [ABORT]                                                                     *
 *  \___/     SCF run NOT converged. To continue the calculation regardless,   *
 *    |             please set the keyword IGNORE_CONVERGENCE_FAILURE.         *
 *  O/|                                                                        *
 * /| |                                                                        *
 * / \                                                            qs_scf.F:611 *
 *******************************************************************************


 ===== Routine Calling Stack ===== 

            3 scf_env_do_scf
            2 qs_energies
            1 CP2K

 *******************************************************************************
 *   ___                                                                       *
 *  /   \                                                                      *
 * [ABORT]                                                                     *
 *  \___/     SCF run NOT converged. To continue the calculation regardless,   *
 *    |             please set the keyword IGNORE_CONVERGENCE_FAILURE.         *
 *  O/|                                                                        *
 * /| |                                                                        *
 * / \                                                            qs_scf.F:611 *
 *******************************************************************************


 ===== Routine Calling Stack ===== 

            3 scf_env_do_scf
            2 qs_energies
            1 CP2K

 *******************************************************************************
 *   ___                                                                       *
 *  /   \                                                                      *
 * [ABORT]                                                                     *
 *  \___/     SCF run NOT converged. To continue the calculation regardless,   *
 *    |             please set the keyword IGNORE_CONVERGENCE_FAILURE.         *
 *  O/|                                                                        *
 * /| |                                                                        *
 * / \                                                            qs_scf.F:611 *
 *******************************************************************************


 ===== Routine Calling Stack ===== 

            3 scf_env_do_scf
            2 qs_energies
            1 CP2K

 *******************************************************************************
 *   ___                                                                       *
 *  /   \                                                                      *
 * [ABORT]                                                                     *
 *  \___/     SCF run NOT converged. To continue the calculation regardless,   *
 *    |             please set the keyword IGNORE_CONVERGENCE_FAILURE.         *
 *  O/|                                                                        *
 * /| |                                                                        *
 * / \                                                            qs_scf.F:611 *
 *******************************************************************************


 ===== Routine Calling Stack ===== 

            3 scf_env_do_scf
            2 qs_energies
            1 CP2K

 *******************************************************************************
 *   ___                                                                       *
 *  /   \                                                                      *
 * [ABORT]                                                                     *
 *  \___/     SCF run NOT converged. To continue the calculation regardless,   *
 *    |             please set the keyword IGNORE_CONVERGENCE_FAILURE.         *
 *  O/|                                                                        *
 * /| |                                                                        *
 * / \                                                            qs_scf.F:611 *
 *******************************************************************************


 ===== Routine Calling Stack ===== 

            3 scf_env_do_scf
            2 qs_energies
            1 CP2K

 *******************************************************************************
 *   ___                                                                       *
 *  /   \                                                                      *
 * [ABORT]                                                                     *
 *  \___/     SCF run NOT converged. To continue the calculation regardless,   *
 *    |             please set the keyword IGNORE_CONVERGENCE_FAILURE.         *
 *  O/|                                                                        *
 * /| |                                                                        *
 * / \                                                            qs_scf.F:611 *
 *******************************************************************************


 ===== Routine Calling Stack ===== 

            3 scf_env_do_scf
            2 qs_energies
            1 CP2K

 *******************************************************************************
 *   ___                                                                       *
 *  /   \                                                                      *
 * [ABORT]                                                                     *
 *  \___/     SCF run NOT converged. To continue the calculation regardless,   *
 *    |             please set the keyword IGNORE_CONVERGENCE_FAILURE.         *
 *  O/|                                                                        *
 * /| |                                                                        *
 * / \                                                            qs_scf.F:611 *
 *******************************************************************************


 ===== Routine Calling Stack ===== 

            3 scf_env_do_scf
            2 qs_energies
            1 CP2K

 *******************************************************************************
 *   ___                                                                       *
 *  /   \                                                                      *
 * [ABORT]                                                                     *
 *  \___/     SCF run NOT converged. To continue the calculation regardless,   *
 *    |             please set the keyword IGNORE_CONVERGENCE_FAILURE.         *
 *  O/|                                                                        *
 * /| |                                                                        *
 * / \                                                            qs_scf.F:611 *
 *******************************************************************************


 ===== Routine Calling Stack ===== 

            3 scf_env_do_scf
            2 qs_energies
            1 CP2K

 *******************************************************************************
 *   ___                                                                       *
 *  /   \                                                                      *
 * [ABORT]                                                                     *
 *  \___/     SCF run NOT converged. To continue the calculation regardless,   *
 *    |             please set the keyword IGNORE_CONVERGENCE_FAILURE.         *
 *  O/|                                                                        *
 * /| |                                                                        *
 * / \                                                            qs_scf.F:611 *
 *******************************************************************************


 ===== Routine Calling Stack ===== 

            3 scf_env_do_scf
            2 qs_energies
            1 CP2K

 *******************************************************************************
 *   ___                                                                       *
 *  /   \                                                                      *
 * [ABORT]                                                                     *
 *  \___/     SCF run NOT converged. To continue the calculation regardless,   *
 *    |             please set the keyword IGNORE_CONVERGENCE_FAILURE.         *
 *  O/|                                                                        *
 * /| |                                                                        *
 * / \                                                            qs_scf.F:611 *
 *******************************************************************************


 ===== Routine Calling Stack ===== 

            3 scf_env_do_scf
            2 qs_energies
            1 CP2K

 *******************************************************************************
 *   ___                                                                       *
 *  /   \                                                                      *
 * [ABORT]                                                                     *
 *  \___/     SCF run NOT converged. To continue the calculation regardless,   *
 *    |             please set the keyword IGNORE_CONVERGENCE_FAILURE.         *
 *  O/|                                                                        *
 * /| |                                                                        *
 * / \                                                            qs_scf.F:611 *
 *******************************************************************************


 ===== Routine Calling Stack ===== 

            3 scf_env_do_scf
            2 qs_energies
            1 CP2K

 *******************************************************************************
 *   ___                                                                       *
 *  /   \                                                                      *
 * [ABORT]                                                                     *
 *  \___/     SCF run NOT converged. To continue the calculation regardless,   *
 *    |             please set the keyword IGNORE_CONVERGENCE_FAILURE.         *
 *  O/|                                                                        *
 * /| |                                                                        *
 * / \                                                            qs_scf.F:611 *
 *******************************************************************************


 ===== Routine Calling Stack ===== 

            3 scf_env_do_scf
            2 qs_energies
            1 CP2K

 *******************************************************************************
 *   ___                                                                       *
 *  /   \                                                                      *
 * [ABORT]                                                                     *
 *  \___/     SCF run NOT converged. To continue the calculation regardless,   *
 *    |             please set the keyword IGNORE_CONVERGENCE_FAILURE.         *
 *  O/|                                                                        *
 * /| |                                                                        *
 * / \                                                            qs_scf.F:611 *
 *******************************************************************************


 ===== Routine Calling Stack ===== 

            3 scf_env_do_scf
            2 qs_energies
            1 CP2K
