 DBCSR| CPU Multiplication driver                                           BLAS (U)
 DBCSR| Multrec recursion limit                                              512 (U)
 DBCSR| Multiplication stack size                                           1000 (D)
 DBCSR| Maximum elements for images                                    UNLIMITED (U)
 DBCSR| Multiplicative factor virtual images                                   1 (U)
 DBCSR| Use multiplication densification                                       T (D)
 DBCSR| Multiplication size stacks                                             3 (U)
 DBCSR| Use memory pool for CPU allocation                                     F (U)
 DBCSR| Number of 3D layers                                               SINGLE (U)
 DBCSR| Use MPI memory allocation                                              F (U)
 DBCSR| Use RMA algorithm                                                      F (U)
 DBCSR| Use Communication thread                                               T (U)
 DBCSR| Communication thread load                                             75 (D)
 DBCSR| MPI: My process id                                                     0
 DBCSR| MPI: Number of processes                                              24
 DBCSR| OMP: Current number of threads                                         4
 DBCSR| OMP: Max number of threads                                             4
 DBCSR| Split modifier for TAS multiplication algorithm                  1.0E+00 (U)


  **** **** ******  **  PROGRAM STARTED AT               2025-03-16 14:56:48.006
 ***** ** ***  *** **   PROGRAM STARTED ON                          i04r03c05s06
 **    ****   ******    PROGRAM STARTED BY                               di38fab
 ***** **    ** ** **   PROGRAM PROCESS ID                                662780
  **** **  *******  **  PROGRAM STARTED IN /hppfs/scratch/04/di38fab/05_MOL/W4-1
                                           1+ALK/o2/SZV/GW+BSE/Np1

 CP2K| version string:                 CP2K version 2025.1 (Development Version)
 CP2K| source code revision number:                                  git:d2e611a
 CP2K| cp2kflags: omp libint fftw3 libxc parallel scalapack max_contr=4         
 CP2K| is freely available from                            https://www.cp2k.org/
 CP2K| Program compiled at                       Thu 06 Mar 2025 05:09:20 PM CET
 CP2K| Program compiled on                                               login02
 CP2K| Program compiled for                                        Supermuc-foss
 CP2K| Data directory path                  /hppfs/work/pn36zo/di38fab/cp2k/data
 CP2K| Input file name                                                    GW.inp

 GLOBAL| Force Environment number                                              1
 GLOBAL| Basis set file name            /hppfs/scratch/04/di38fab/04_TMD/BASIS_A
 GLOBAL| Potential file name            /hppfs/work/pn36zo/di38fab/cp2k/data/ALL
 GLOBAL| MM Potential file name                                     MM_POTENTIAL
 GLOBAL| Coordinate file name                                      __STD_INPUT__
 GLOBAL| Method name                                                        CP2K
 GLOBAL| Project name                                                       MoS2
 GLOBAL| Run type                                                         ENERGY
 GLOBAL| FFT library                                                       FFTW3
 GLOBAL| Diagonalization library                                       ScaLAPACK
 GLOBAL| DGEMM library                                                      BLAS
 GLOBAL| Orthonormality check for eigenvectors                          DISABLED
 GLOBAL| Matrix multiplication library                                 ScaLAPACK
 GLOBAL| All-to-all communication in single precision                          F
 GLOBAL| FFTs using library dependent lengths                                  F
 GLOBAL| Grid backend                                                       AUTO
 GLOBAL| Global print level                                               MEDIUM
 GLOBAL| MPI I/O enabled                                                       T
 GLOBAL| Total number of message passing processes                            24
 GLOBAL| Number of threads for this process                                    4
 GLOBAL| This output is from process                                           0
 GLOBAL| OpenMP stack size per thread (OMP_STACKSIZE)                    default
 GLOBAL| CPU model name             Intel(R) Xeon(R) Platinum 8174 CPU @ 3.10GHz

 MEMORY| system memory details [Kb]
 MEMORY|                        rank 0           min           max       average
 MEMORY| MemTotal             98436660      98436660      98436660      98436660
 MEMORY| MemFree              84358408      83878132      84358408      84118270
 MEMORY| Buffers                     0             0             0             0
 MEMORY| Cached                2410112       2401484       2410112       2405798
 MEMORY| Slab                  1140840       1140840       1231064       1185952
 MEMORY| SReclaimable           263372        263372        273024        268198
 MEMORY| MemLikelyFree        87031892      86552640      87031892      86792266


 *** Fundamental physical constants (SI units) ***

 *** Literature: B. J. Mohr and B. N. Taylor,
 ***             CODATA recommended values of the fundamental physical
 ***             constants: 2006, Web Version 5.1
 ***             http://physics.nist.gov/constants

 Speed of light in vacuum [m/s]                             2.99792458000000E+08
 Magnetic constant or permeability of vacuum [N/A**2]       1.25663706143592E-06
 Electric constant or permittivity of vacuum [F/m]          8.85418781762039E-12
 Planck constant (h) [J*s]                                  6.62606896000000E-34
 Planck constant (h-bar) [J*s]                              1.05457162825177E-34
 Elementary charge [C]                                      1.60217648700000E-19
 Electron mass [kg]                                         9.10938215000000E-31
 Electron g factor [ ]                                     -2.00231930436220E+00
 Proton mass [kg]                                           1.67262163700000E-27
 Fine-structure constant                                    7.29735253760000E-03
 Rydberg constant [1/m]                                     1.09737315685270E+07
 Avogadro constant [1/mol]                                  6.02214179000000E+23
 Boltzmann constant [J/K]                                   1.38065040000000E-23
 Atomic mass unit [kg]                                      1.66053878200000E-27
 Bohr radius [m]                                            5.29177208590000E-11

 *** Conversion factors ***

 [u] -> [a.u.]                                              1.82288848426455E+03
 [Angstrom] -> [Bohr] = [a.u.]                              1.88972613288564E+00
 [a.u.] = [Bohr] -> [Angstrom]                              5.29177208590000E-01
 [a.u.] -> [s]                                              2.41888432650478E-17
 [a.u.] -> [fs]                                             2.41888432650478E-02
 [a.u.] -> [J]                                              4.35974393937059E-18
 [a.u.] -> [N]                                              8.23872205491840E-08
 [a.u.] -> [K]                                              3.15774647902944E+05
 [a.u.] -> [kJ/mol]                                         2.62549961709828E+03
 [a.u.] -> [kcal/mol]                                       6.27509468713739E+02
 [a.u.] -> [Pa]                                             2.94210107994716E+13
 [a.u.] -> [bar]                                            2.94210107994716E+08
 [a.u.] -> [atm]                                            2.90362800883016E+08
 [a.u.] -> [eV]                                             2.72113838565563E+01
 [a.u.] -> [Hz]                                             6.57968392072181E+15
 [a.u.] -> [1/cm] (wave numbers)                            2.19474631370540E+05
 [a.u./Bohr**2] -> [1/cm]                                   5.14048714338585E+03
 

 CELL_TOP| Volume [angstrom^3]:                                     27000.000000
 CELL_TOP| Vector a [angstrom    30.000     0.000     0.000   |a| =    30.000000
 CELL_TOP| Vector b [angstrom     0.000    30.000     0.000   |b| =    30.000000
 CELL_TOP| Vector c [angstrom     0.000     0.000    30.000   |c| =    30.000000
 CELL_TOP| Angle (b,c), alpha [degree]:                                90.000000
 CELL_TOP| Angle (a,c), beta  [degree]:                                90.000000
 CELL_TOP| Angle (a,b), gamma [degree]:                                90.000000
 CELL_TOP| Numerically orthorhombic:                                         YES
 CELL_TOP| Periodicity                                                      NONE

 GENERATE|  Preliminary Number of Bonds generated:                             0
 GENERATE|  Achieved consistency in connectivity generation.

 CELL| Volume [angstrom^3]:                                         27000.000000
 CELL| Vector a [angstrom]:      30.000     0.000     0.000   |a| =    30.000000
 CELL| Vector b [angstrom]:       0.000    30.000     0.000   |b| =    30.000000
 CELL| Vector c [angstrom]:       0.000     0.000    30.000   |c| =    30.000000
 CELL| Angle (b,c), alpha [degree]:                                    90.000000
 CELL| Angle (a,c), beta  [degree]:                                    90.000000
 CELL| Angle (a,b), gamma [degree]:                                    90.000000
 CELL| Numerically orthorhombic:                                             YES
 CELL| Periodicity                                                          NONE

 CELL_REF| Volume [angstrom^3]:                                     27000.000000
 CELL_REF| Vector a [angstrom    30.000     0.000     0.000   |a| =    30.000000
 CELL_REF| Vector b [angstrom     0.000    30.000     0.000   |b| =    30.000000
 CELL_REF| Vector c [angstrom     0.000     0.000    30.000   |c| =    30.000000
 CELL_REF| Angle (b,c), alpha [degree]:                                90.000000
 CELL_REF| Angle (a,c), beta  [degree]:                                90.000000
 CELL_REF| Angle (a,b), gamma [degree]:                                90.000000
 CELL_REF| Numerically orthorhombic:                                         YES
 CELL_REF| Periodicity                                                      NONE

 *******************************************************************************
 *******************************************************************************
 **                                                                           **
 **     #####                         ##              ##                      **
 **    ##   ##            ##          ##              ##                      **
 **   ##     ##                       ##            ######                    **
 **   ##     ##  ##   ##  ##   #####  ##  ##   ####   ##    #####    #####    **
 **   ##     ##  ##   ##  ##  ##      ## ##   ##      ##   ##   ##  ##   ##   **
 **   ##  ## ##  ##   ##  ##  ##      ####     ###    ##   ######   ######    **
 **    ##  ###   ##   ##  ##  ##      ## ##      ##   ##   ##       ##        **
 **     #######   #####   ##   #####  ##  ##  ####    ##    #####   ##        **
 **           ##                                                    ##        **
 **                                                                           **
 **                                                ... make the atoms dance   **
 **                                                                           **
 **            Copyright (C) by CP2K developers group (2000-2025)             **
 **                      J. Chem. Phys. 152, 194103 (2020)                    **
 **                                                                           **
 *******************************************************************************

 DFT| Spin restricted Kohn-Sham (RKS) calculation                            RKS
 DFT| Multiplicity                                                             1
 DFT| Number of spin states                                                    1
 DFT| Charge                                                                   0
 DFT| Self-interaction correction (SIC)                                       NO
 DFT| Cutoffs: density                                              1.000000E-10
 DFT|          gradient                                             1.000000E-10
 DFT|          tau                                                  1.000000E-10
 DFT|          cutoff_smoothing_range                               0.000000E+00
 DFT| XC density smoothing                                                  NONE
 DFT| XC derivatives                                                          PW

 FUNCTIONAL| PBE:
 FUNCTIONAL| J.P.Perdew, K.Burke, M.Ernzerhof, Phys. Rev. Letter, vol. 77, n 18,
 FUNCTIONAL|  pp. 3865-3868, (1996)sx=0.750sc=1.000{spin unpolarized}           


 QS| Method:                                                                GAPW
 QS| Density plane wave grid type                        NON-SPHERICAL FULLSPACE
 QS| Number of grid levels:                                                    4
 QS| Density cutoff [a.u.]:                                                250.0
 QS| Multi grid cutoff [a.u.]: 1) grid level                               250.0
 QS|                           2) grid level                                83.3
 QS|                           3) grid level                                27.8
 QS|                           4) grid level                                 9.3
 QS| Grid level progression factor:                                          3.0
 QS| Relative density cutoff [a.u.]:                                        50.0
 QS| Interaction thresholds: eps_pgf_orb:                                1.0E-12
 QS|                         eps_filter_matrix:                          0.0E+00
 QS|                         eps_core_charge:                            1.0E-14
 QS|                         eps_rho_gspace:                             1.0E-12
 QS|                         eps_rho_rspace:                             1.0E-12
 QS|                         eps_gvg_rspace:                             1.0E-06
 QS|                         eps_ppl:                                    1.0E-02
 QS|                         eps_ppnl:                                   1.0E-08
 QS| GAPW|      One center basis from orbital basis primitives
 QS| GAPW|                   eps_fit:                                    1.0E-04
 QS| GAPW|                   eps_iso:                                    1.0E-12
 QS| GAPW|                   eps_svd:                                    1.0E-08
 QS| GAPW|                   eps_cpc:                                    1.0E-12
 QS| GAPW|   atom-r-grid: quadrature:                                     GC_LOG
 QS| GAPW|      atom-s-grid:  max l :                                          2
 QS| GAPW|      max_l_rho0 :                                                   2


 ATOMIC KIND INFORMATION

  1. Atomic kind: O                                     Number of atoms:       2

     Orbital Basis Set                                         aug-SZV-MOLOPT-ae

       Number of orbital shell sets:                                           2
       Number of orbital shells:                                               5
       Number of primitive Cartesian functions:                               13
       Number of Cartesian basis functions:                                    9
       Number of spherical basis functions:                                    9
       Norm type:                                                              2

       Normalised Cartesian orbitals:

                        Set   Shell   Orbital            Exponent    Coefficient

                          1       1    1s                0.123000       0.000000
                                                         0.245881       0.059902
                                                         0.536420       0.265853
                                                         1.235135       0.208956
                                                         3.210345      -0.057750
                                                        10.329320      -0.192968
                                                        52.187762      -0.183398

                          1       2    2s                0.123000      -0.253465
                                                         0.245881       0.187097
                                                         0.536420       0.063592
                                                         1.235135       0.074938
                                                         3.210345       0.000000
                                                        10.329320       0.000000
                                                        52.187762       0.000000

                          1       3    2px               0.123000       0.000000
                                                         0.245881       0.025102
                                                         0.536420       0.278668
                                                         1.235135       0.775885
                                                         3.210345       1.065175
                                                        10.329320       0.994565
                                                        52.187762       0.751716
                          1       3    2py               0.123000       0.000000
                                                         0.245881       0.025102
                                                         0.536420       0.278668
                                                         1.235135       0.775885
                                                         3.210345       1.065175
                                                        10.329320       0.994565
                                                        52.187762       0.751716
                          1       3    2pz               0.123000       0.000000
                                                         0.245881       0.025102
                                                         0.536420       0.278668
                                                         1.235135       0.775885
                                                         3.210345       1.065175
                                                        10.329320       0.994565
                                                        52.187762       0.751716

                          1       4    3px               0.123000       0.048536
                                                         0.245881       0.257066
                                                         0.536420      -0.539300
                                                         1.235135      -0.153605
                                                         3.210345       0.000000
                                                        10.329320       0.000000
                                                        52.187762       0.000000
                          1       4    3py               0.123000       0.048536
                                                         0.245881       0.257066
                                                         0.536420      -0.539300
                                                         1.235135      -0.153605
                                                         3.210345       0.000000
                                                        10.329320       0.000000
                                                        52.187762       0.000000
                          1       4    3pz               0.123000       0.048536
                                                         0.245881       0.257066
                                                         0.536420      -0.539300
                                                         1.235135      -0.153605
                                                         3.210345       0.000000
                                                        10.329320       0.000000
                                                        52.187762       0.000000

                          2       1    1s             1355.584234       1.459053
                                                       248.544885       2.202176
                                                        69.533902       2.892385
                                                        23.886772       2.853580
                                                         9.275933       1.577736
                                                         3.820341       0.253831

     RI Auxiliary Basis Set             RI_aug-SZV-MOLOPT-ae_N_RI_040_s_p_d_f_g_

       Number of orbital shell sets:                                          14
       Number of orbital shells:                                              14
       Number of primitive Cartesian functions:                               14
       Number of Cartesian basis functions:                                   46
       Number of spherical basis functions:                                   40
       Norm type:                                                              2

       Normalised Cartesian orbitals:

                        Set   Shell   Orbital            Exponent    Coefficient

                          1       1    7px               0.341769       0.372483
                          1       1    7py               0.341769       0.372483
                          1       1    7pz               0.341769       0.372483

                          2       1    1s                0.344072       0.320182

                          3       1   11dx2              0.449957       0.406873
                          3       1   11dxy              0.449957       0.704724
                          3       1   11dxz              0.449957       0.704724
                          3       1   11dy2              0.449957       0.406873
                          3       1   11dyz              0.449957       0.704724
                          3       1   11dz2              0.449957       0.406873

                          4       1    2s                0.931833       0.675948

                          5       1   12dx2              1.730028       4.295388
                          5       1   12dxy              1.730028       7.439830
                          5       1   12dxz              1.730028       7.439830
                          5       1   12dy2              1.730028       4.295388
                          5       1   12dyz              1.730028       7.439830
                          5       1   12dz2              1.730028       4.295388

                          6       1    8px               1.762752       2.895203
                          6       1    8py               1.762752       2.895203
                          6       1    8pz               1.762752       2.895203

                          7       1   14fx3              2.093594       7.761798
                          7       1   14fx2y             2.093594      17.355907
                          7       1   14fx2z             2.093594      17.355907
                          7       1   14fxy2             2.093594      17.355907
                          7       1   14fxyz             2.093594      30.061313
                          7       1   14fxz2             2.093594      17.355907
                          7       1   14fy3              2.093594       7.761798
                          7       1   14fy2z             2.093594      17.355907
                          7       1   14fyz2             2.093594      17.355907
                          7       1   14fz3              2.093594       7.761798

                          8       1    3s                3.315085       1.750980

                          9       1   13dx2              6.638977      45.194596
                          9       1   13dxy              6.638977      78.279336
                          9       1   13dxz              6.638977      78.279336
                          9       1   13dy2              6.638977      45.194596
                          9       1   13dyz              6.638977      78.279336
                          9       1   13dz2              6.638977      45.194596

                         10       1    9px               7.432001      17.491308
                         10       1    9py               7.432001      17.491308
                         10       1    9pz               7.432001      17.491308

                         11       1    4s               12.171048       4.644148

                         12       1   10px              31.410401     105.994162
                         12       1   10py              31.410401     105.994162
                         12       1   10pz              31.410401     105.994162

                         13       1    5s               44.568151      12.293585

                         14       1    6s              162.819109      32.485468

       Atomic covalent radius [Angstrom]:                                  0.730

       Atomic van der Waals radius [Angstrom]:                             1.520

     The atoms of this atomic kind are PAW atoms (GAPW):
       Hard Gaussian function radius:                                      1.512
       Rho0 radius:                                                        1.512
       Maximum GTO radius used for PAW projector construction:            24.566

     GAPW Soft Basis Set                                  aug-SZV-MOLOPT-ae_soft

       Number of orbital shell sets:                                           2
       Number of orbital shells:                                               5
       Number of primitive Cartesian functions:                                6
       Number of Cartesian basis functions:                                    9
       Number of spherical basis functions:                                    9
       Norm type:                                                              2

       Normalised Cartesian orbitals:

                        Set   Shell   Orbital            Exponent    Coefficient

                          1       1    1s                0.123000       0.000000
                                                         0.245881       0.059902
                                                         0.536420       0.265853
                                                         1.235135       0.208956
                                                         3.210345      -0.057750

                          1       2    2s                0.123000      -0.253465
                                                         0.245881       0.187097
                                                         0.536420       0.063592
                                                         1.235135       0.074938
                                                         3.210345       0.000000

                          1       3    2px               0.123000       0.000000
                                                         0.245881       0.025102
                                                         0.536420       0.278668
                                                         1.235135       0.775885
                                                         3.210345       1.065175
                          1       3    2py               0.123000       0.000000
                                                         0.245881       0.025102
                                                         0.536420       0.278668
                                                         1.235135       0.775885
                                                         3.210345       1.065175
                          1       3    2pz               0.123000       0.000000
                                                         0.245881       0.025102
                                                         0.536420       0.278668
                                                         1.235135       0.775885
                                                         3.210345       1.065175

                          1       4    3px               0.123000       0.048536
                                                         0.245881       0.257066
                                                         0.536420      -0.539300
                                                         1.235135      -0.153605
                                                         3.210345       0.000000
                          1       4    3py               0.123000       0.048536
                                                         0.245881       0.257066
                                                         0.536420      -0.539300
                                                         1.235135      -0.153605
                                                         3.210345       0.000000
                          1       4    3pz               0.123000       0.048536
                                                         0.245881       0.257066
                                                         0.536420      -0.539300
                                                         1.235135      -0.153605
                                                         3.210345       0.000000

                          2       1    1s                3.820341       0.253831

     AE Potential information for                                            ALL

       Description:                                       All-electron potential
                                          Krack, Parrinello, PCCP 2, 2105 (2000)

       Gaussian exponent of the core charge distribution:               8.154466
       Electronic configuration (s p d ...):                           4   4   0


 MOLECULE KIND INFORMATION


 All atoms are their own molecule, skipping detailed information


 TOTAL NUMBERS AND MAXIMUM NUMBERS

  Total number of            - Atomic kinds:                                   1
                             - Atoms:                                          2
                             - Shell sets:                                     4
                             - Shells:                                        10
                             - Primitive Cartesian functions:                 26
                             - Cartesian basis functions:                     18
                             - Spherical basis functions:                     18

  Maximum angular momentum of the orbital basis functions:                     1


 MODULE QUICKSTEP: ATOMIC COORDINATES IN ANGSTROM

   Atom Kind Element         X             Y             Z       Z(eff)     Mass
      1    1 O     8     15.603900     15.000000     15.000000   8.0000  15.9994
      2    1 O     8     14.396100     15.000000     15.000000   8.0000  15.9994



 SCF PARAMETERS         Density guess:                                    ATOMIC
                        --------------------------------------------------------
                        max_scf:                                             500
                        max_scf_history:                                       0
                        max_diis:                                              4
                        --------------------------------------------------------
                        eps_scf:                                        1.00E-06
                        eps_scf_history:                                0.00E+00
                        eps_diis:                                       1.00E-01
                        eps_eigval:                                     1.00E-05
                        --------------------------------------------------------
                        level_shift [a.u.]:                             0.000000
                        added MOs                                        10    0
                        --------------------------------------------------------
                        Mixing method:                            BROYDEN_MIXING
                                                charge density mixing in g-space
                        --------------------------------------------------------
                        No outer SCF

 PW_GRID| Information for grid number                                          1
 PW_GRID| Grid distributed over                                    24 processors
 PW_GRID| Real space group dimensions                                    24    1
 PW_GRID| the grid is blocked:                                                NO
 PW_GRID| Cutoff [a.u.]                                                    250.0
 PW_GRID| spherical cutoff:                                                   NO
 PW_GRID|   Bounds   1           -202     202                Points:         405
 PW_GRID|   Bounds   2           -202     202                Points:         405
 PW_GRID|   Bounds   3           -202     202                Points:         405
 PW_GRID| Volume element (a.u.^3)  0.2743E-02     Volume (a.u.^3)    182205.0337
 PW_GRID| Grid span                                                    FULLSPACE
 PW_GRID|   Distribution                         Average         Max         Min
 PW_GRID|   G-Vectors                          2767921.9     2768175     2767770
 PW_GRID|   G-Rays                                6834.4        6835        6834
 PW_GRID|   Real Space Points                  2767921.9     2788425     2624400

 PW_GRID| Information for grid number                                          2
 PW_GRID| Number of the reference grid                                         1
 PW_GRID| Grid distributed over                                    24 processors
 PW_GRID| Real space group dimensions                                    24    1
 PW_GRID| the grid is blocked:                                                NO
 PW_GRID| Cutoff [a.u.]                                                     83.3
 PW_GRID| spherical cutoff:                                                   NO
 PW_GRID|   Bounds   1           -120     119                Points:         240
 PW_GRID|   Bounds   2           -120     119                Points:         240
 PW_GRID|   Bounds   3           -120     119                Points:         240
 PW_GRID| Volume element (a.u.^3)  0.1318E-01     Volume (a.u.^3)    182205.0337
 PW_GRID| Grid span                                                    FULLSPACE
 PW_GRID|   Distribution                         Average         Max         Min
 PW_GRID|   G-Vectors                           576000.0      576240      575760
 PW_GRID|   G-Rays                                2400.0        2401        2399
 PW_GRID|   Real Space Points                   576000.0      576000      576000

 PW_GRID| Information for grid number                                          3
 PW_GRID| Number of the reference grid                                         1
 PW_GRID| Grid distributed over                                    24 processors
 PW_GRID| Real space group dimensions                                    24    1
 PW_GRID| the grid is blocked:                                                NO
 PW_GRID| Cutoff [a.u.]                                                     27.8
 PW_GRID| spherical cutoff:                                                   NO
 PW_GRID|   Bounds   1            -67      67                Points:         135
 PW_GRID|   Bounds   2            -67      67                Points:         135
 PW_GRID|   Bounds   3            -67      67                Points:         135
 PW_GRID| Volume element (a.u.^3)  0.7406E-01     Volume (a.u.^3)    182205.0337
 PW_GRID| Grid span                                                    FULLSPACE
 PW_GRID|   Distribution                         Average         Max         Min
 PW_GRID|   G-Vectors                           102515.6      102735      102330
 PW_GRID|   G-Rays                                 759.4         761         758
 PW_GRID|   Real Space Points                   102515.6      109350       91125

 PW_GRID| Information for grid number                                          4
 PW_GRID| Number of the reference grid                                         1
 PW_GRID| Grid distributed over                                    24 processors
 PW_GRID| Real space group dimensions                                    24    1
 PW_GRID| the grid is blocked:                                                NO
 PW_GRID| Cutoff [a.u.]                                                      9.3
 PW_GRID| spherical cutoff:                                                   NO
 PW_GRID|   Bounds   1            -40      39                Points:          80
 PW_GRID|   Bounds   2            -40      39                Points:          80
 PW_GRID|   Bounds   3            -40      39                Points:          80
 PW_GRID| Volume element (a.u.^3)  0.3559         Volume (a.u.^3)    182205.0337
 PW_GRID| Grid span                                                    FULLSPACE
 PW_GRID|   Distribution                         Average         Max         Min
 PW_GRID|   G-Vectors                            21333.3       21360       21280
 PW_GRID|   G-Rays                                 266.7         267         266
 PW_GRID|   Real Space Points                    21333.3       25600       19200

 POISSON| Solver                                                         WAVELET
 POISSON| Wavelet| Scaling function                                           40
 POISSON| Periodicity                                                       NONE

 RS_GRID| Information for grid number                                          1
 RS_GRID|   Bounds   1           -202     202                Points:         405
 RS_GRID|   Bounds   2           -202     202                Points:         405
 RS_GRID|   Bounds   3           -202     202                Points:         405
 RS_GRID| Real space distribution over                                  4 groups
 RS_GRID| Real space distribution along direction                              2
 RS_GRID| Border size                                                         33
 RS_GRID| Real space distribution over                                  6 groups
 RS_GRID| Real space distribution along direction                              3
 RS_GRID| Border size                                                         33
 RS_GRID|   Distribution                         Average         Max         Min
 RS_GRID|   Planes                                 167.2         168         167
 RS_GRID|   Distribution                         Average         Max         Min
 RS_GRID|   Planes                                 133.5         134         133

 RS_GRID| Information for grid number                                          2
 RS_GRID|   Bounds   1           -120     119                Points:         240
 RS_GRID|   Bounds   2           -120     119                Points:         240
 RS_GRID|   Bounds   3           -120     119                Points:         240
 RS_GRID| Real space distribution over                                  4 groups
 RS_GRID| Real space distribution along direction                              2
 RS_GRID| Border size                                                         32
 RS_GRID| Real space distribution over                                  6 groups
 RS_GRID| Real space distribution along direction                              3
 RS_GRID| Border size                                                         32
 RS_GRID|   Distribution                         Average         Max         Min
 RS_GRID|   Planes                                 124.0         124         124
 RS_GRID|   Distribution                         Average         Max         Min
 RS_GRID|   Planes                                 104.0         104         104

 RS_GRID| Information for grid number                                          3
 RS_GRID|   Bounds   1            -67      67                Points:         135
 RS_GRID|   Bounds   2            -67      67                Points:         135
 RS_GRID|   Bounds   3            -67      67                Points:         135
 RS_GRID| Real space fully replicated
 RS_GRID| Group size                                                           1

 RS_GRID| Information for grid number                                          4
 RS_GRID|   Bounds   1            -40      39                Points:          80
 RS_GRID|   Bounds   2            -40      39                Points:          80
 RS_GRID|   Bounds   3            -40      39                Points:          80
 RS_GRID| Real space fully replicated
 RS_GRID| Group size                                                           1

  HFX_INFO| Replica ID:                                                        1
  HFX_INFO| FRACTION:                                               0.2500000000
  HFX_INFO| Interaction Potential:                                       COULOMB
  HFX_INFO| EPS_SCHWARZ:                                                 1.0E-10
  HFX_INFO| EPS_SCHWARZ_FORCES                                           1.0E-08
  HFX_INFO| EPS_STORAGE_SCALING:                                         1.0E+00
  HFX_INFO| NBINS:                                                            64
  HFX_INFO| BLOCK_SIZE:                                                        1
  HFX_INFO| Number of periodic shells considered:                           NONE
  HFX_INFO| Number of periodic cells considered:                            NONE

 
 RI-RPA| using GPW style
 

 OVERLAP MATRIX CONDITION NUMBER
 1-Norm Condition Number (Estimate)
   CN : |A|*|A^-1|:  3.108E+000 *  9.885E+001   = 3.072E+002  Log(1-CN):  2.4874
 1-Norm and 2-Norm Condition Numbers using Diagonalization
   CN : |A|*|A^-1|:  3.108E+000 *  9.885E+001   = 3.072E+002  Log(1-CN):  2.4874
   CN : max/min ev:  2.566E+000 /  1.397E-002   = 1.836E+002  Log(2-CN):  2.2639

 Number of electrons:                                                         16
 Number of occupied orbitals:                                                  8
 Number of molecular orbitals:                                                18

 Number of orbital functions:                                                 18
 Number of independent orbital functions:                                     18

 Extrapolation method: initial_guess

 Atomic guess: The first density matrix is obtained in terms of atomic orbitals
               and electronic configurations assigned to each atomic kind

 Guess for atomic kind: O

 Electronic structure
    Total number of core electrons                                          0.00
    Total number of valence electrons                                       8.00
    Total number of electrons                                               8.00
    Multiplicity                                                   not specified
    S      2.00  2.00
    P      4.00


 *******************************************************************************
                  Iteration          Convergence                     Energy [au]
 *******************************************************************************
                          1        0.735249                     -74.156692399509
                          2        0.374970                     -74.229519281434
                          3        0.137476E-02                 -74.265323889138
                          4        0.125117E-03                 -74.265324305080
                          5        0.240576E-05                 -74.265324309459
                          6        0.135447E-05                 -74.265324309460
                          7        0.538171E-07                 -74.265324309461

 Energy components [Hartree]           Total Energy ::          -74.265324309461
                                        Band Energy ::          -41.262202594008
                                     Kinetic Energy ::           72.991524336317
                                   Potential Energy ::         -147.256848645778
                                      Virial (-V/T) ::            2.017451340888
                                        Core Energy ::         -102.038650666845
                                          XC Energy ::           -7.668930692176
                                     Coulomb Energy ::           35.442257049561

 Orbital energies  State     L     Occupation   Energy[a.u.]          Energy[eV]

                       1     0          2.000     -18.982629         -516.543598
                       2     0          2.000      -0.922184          -25.093913

                       1     1          4.000      -0.363144           -9.881653


 Total Electron Density at R=0:                                       265.214148
 Re-scaling the density matrix to get the right number of electrons
                  # Electrons              Trace(P)               Scaling factor
                           16                16.000                        1.000


 SCF WAVEFUNCTION OPTIMIZATION

  Step     Update method      Time    Convergence         Total energy    Change
  ------------------------------------------------------------------------------

  HFX_MEM_INFO| Est. max. program size before HFX [MiB]:                    2098
  HFX_MEM_INFO| Number of cart. primitive ERI's calculated:              7291851
  HFX_MEM_INFO| Number of sph. ERI's calculated:                           39366
  HFX_MEM_INFO| Number of sph. ERI's stored in-core:                       39366
  HFX_MEM_INFO| Number of sph. ERI's stored on disk:                           0
  HFX_MEM_INFO| Number of sph. ERI's calculated on the fly:                    0
  HFX_MEM_INFO| Total memory consumption ERI's RAM [MiB]:                      1
  HFX_MEM_INFO| Whereof max-vals [MiB]:                                        1
  HFX_MEM_INFO| Total compression factor ERI's RAM:                         0.35
  HFX_MEM_INFO| Total memory consumption ERI's disk [MiB]:                     0
  HFX_MEM_INFO| Total compression factor ERI's disk:                        0.00
  HFX_MEM_INFO| Size of density/Fock matrix [MiB]:                             0
  HFX_MEM_INFO| Size of buffers [MiB]:                                         0
  HFX_MEM_INFO| Est. max. program size after HFX  [MiB]:                    2605

     1 NoMix/Diag. 0.10E+00    6.1     0.74505831      -150.1151808056 -1.50E+02
     2 Broy./Diag. 0.10E+00    4.6     0.01546365      -149.6555194455  4.60E-01
     3 Broy./Diag. 0.10E+00    4.8     0.05894792      -149.6804288465 -2.49E-02
     4 Broy./Diag. 0.10E+00    4.8     0.01137167      -149.7175307826 -3.71E-02
     5 Broy./Diag. 0.10E+00    4.8     0.00195415      -149.7108092751  6.72E-03
     6 Broy./Diag. 0.10E+00    5.0     0.00747093      -149.7283655166 -1.76E-02
     7 Broy./Diag. 0.10E+00    5.1     0.00211574      -149.7178532424  1.05E-02
     8 Broy./Diag. 0.10E+00    5.1     0.00163144      -149.7174568955  3.96E-04
     9 Broy./Diag. 0.10E+00    5.2     0.00104575      -149.7160951742  1.36E-03
    10 Broy./Diag. 0.10E+00    5.3     0.00049963      -149.7157554421  3.40E-04
    11 Broy./Diag. 0.10E+00    5.3     0.00054988      -149.7158372858 -8.18E-05
    12 Broy./Diag. 0.10E+00    5.3     0.00011575      -149.7167371227 -9.00E-04
    13 Broy./Diag. 0.10E+00    5.2     0.00062561      -149.7138152093  2.92E-03
    14 Broy./Diag. 0.10E+00    5.3     0.00011132      -149.7133223084  4.93E-04
    15 Broy./Diag. 0.10E+00    5.3     0.00014098      -149.7135813915 -2.59E-04
    16 Broy./Diag. 0.10E+00    5.3     0.00004300      -149.7137880093 -2.07E-04
    17 Broy./Diag. 0.10E+00    5.3     0.00002568      -149.7136821592  1.06E-04
    18 Broy./Diag. 0.10E+00    5.4     0.00003346      -149.7134792486  2.03E-04
    19 Broy./Diag. 0.10E+00    5.2     0.00001411      -149.7133446305  1.35E-04
    20 Broy./Diag. 0.10E+00    5.3     0.00003890      -149.7132294032  1.15E-04
    21 Broy./Diag. 0.10E+00    5.4     0.00002707      -149.7132678307 -3.84E-05
    22 Broy./Diag. 0.10E+00    5.3     0.00002379      -149.7133002005 -3.24E-05
    23 Broy./Diag. 0.10E+00    5.3     0.00002763      -149.7133107309 -1.05E-05
    24 Broy./Diag. 0.10E+00    5.3     0.00001346      -149.7132890400  2.17E-05
    25 Broy./Diag. 0.10E+00    5.3     0.00000660      -149.7132901393 -1.10E-06
    26 Broy./Diag. 0.10E+00    5.3     0.00002062      -149.7133363635 -4.62E-05
    27 Broy./Diag. 0.10E+00    5.2     0.00001188      -149.7133439684 -7.60E-06
    28 Broy./Diag. 0.10E+00    5.3     0.00000769      -149.7132885491  5.54E-05
    29 Broy./Diag. 0.10E+00    5.2     0.00001641      -149.7132284713  6.01E-05
    30 Broy./Diag. 0.10E+00    5.3     0.00002142      -149.7132053468  2.31E-05
    31 Broy./Diag. 0.10E+00    5.3     0.00003314      -149.7132098920 -4.55E-06
    32 Broy./Diag. 0.10E+00    5.3     0.00003870      -149.7132203593 -1.05E-05
    33 Broy./Diag. 0.10E+00    5.3     0.00007447      -149.7132192227  1.14E-06
    34 Broy./Diag. 0.10E+00    5.3     0.00006843      -149.7132385913 -1.94E-05
    35 Broy./Diag. 0.10E+00    5.2     0.00005221      -149.7132587837 -2.02E-05
    36 Broy./Diag. 0.10E+00    5.3     0.00007009      -149.7132598080 -1.02E-06
    37 Broy./Diag. 0.10E+00    5.3     0.00011447      -149.7132584159  1.39E-06
    38 Broy./Diag. 0.10E+00    5.3     0.00019011      -149.7132620272 -3.61E-06
    39 Broy./Diag. 0.10E+00    5.3     0.00031096      -149.7132642033 -2.18E-06
    40 Broy./Diag. 0.10E+00    5.3     0.00051607      -149.7132598330  4.37E-06
    41 Broy./Diag. 0.10E+00    5.3     0.00085189      -149.7132548348  5.00E-06
    42 Broy./Diag. 0.10E+00    5.3     0.00140848      -149.7132498366  5.00E-06
    43 Broy./Diag. 0.10E+00    5.3     0.00231979      -149.7132503670 -5.30E-07
    44 Broy./Diag. 0.10E+00    5.3     0.00380383      -149.7132562016 -5.83E-06
    45 Broy./Diag. 0.10E+00    5.3     0.00625247      -149.7132671451 -1.09E-05
    46 Broy./Diag. 0.10E+00    5.3     0.01025298      -149.7132543116  1.28E-05
    47 Broy./Diag. 0.10E+00    5.3     0.01685973      -149.7132691903 -1.49E-05
    48 Broy./Diag. 0.10E+00    5.3     0.02761011      -149.7132898979 -2.07E-05
    49 Broy./Diag. 0.10E+00    5.4     0.04487662      -149.7132076331  8.23E-05
    50 Broy./Diag. 0.10E+00    5.3     0.07128146      -149.7129667322  2.41E-04
    51 Broy./Diag. 0.10E+00    5.2     0.10682369      -149.7123956814  5.71E-04
    52 Broy./Diag. 0.10E+00    5.3     0.13912612      -149.7110293796  1.37E-03
    53 Broy./Diag. 0.10E+00    5.3     0.18446085      -149.7078856523  3.14E-03
    54 Broy./Diag. 0.10E+00    5.3     0.24634645      -149.7018030192  6.08E-03
    55 Broy./Diag. 0.10E+00    5.3     0.23773284      -149.6928667092  8.94E-03
    56 Broy./Diag. 0.10E+00    5.3     0.17743851      -149.6834139002  9.45E-03
    57 Broy./Diag. 0.10E+00    5.4     0.11217522      -149.6758092655  7.60E-03
    58 Broy./Diag. 0.10E+00    5.3     0.09960933      -149.6706493634  5.16E-03
    59 Broy./Diag. 0.10E+00    5.3     0.07986637      -149.6675183615  3.13E-03
    60 Broy./Diag. 0.10E+00    5.3     0.06065966      -149.6657310155  1.79E-03
    61 Broy./Diag. 0.10E+00    5.3     0.04478381      -149.6647307426  1.00E-03
    62 Broy./Diag. 0.10E+00    5.3     0.03222562      -149.6642094299  5.21E-04
    63 Broy./Diag. 0.10E+00    5.3     0.01958812      -149.6664068573 -2.20E-03
    64 Broy./Diag. 0.10E+00    5.3     0.01384778      -149.6602588163  6.15E-03
    65 Broy./Diag. 0.10E+00    5.3     0.01289911      -149.6523949524  7.86E-03
    66 Broy./Diag. 0.10E+00    5.3     0.09466904      -149.8055424500 -1.53E-01
    67 Broy./Diag. 0.10E+00    5.3     0.19714773      -149.9587591755 -1.53E-01
    68 Broy./Diag. 0.10E+00    5.4     0.20437791      -150.0416993180 -8.29E-02
    69 Broy./Diag. 0.10E+00    5.3     0.12255907      -149.9340613711  1.08E-01
    70 Broy./Diag. 0.10E+00    5.3     0.07821774      -149.7783619360  1.56E-01
    71 Broy./Diag. 0.10E+00    5.3     0.07536347      -149.7475004524  3.09E-02
    72 Broy./Diag. 0.10E+00    5.3     0.00645250      -149.7265315839  2.10E-02
    73 Broy./Diag. 0.10E+00    5.3     0.13116876      -149.7042146813  2.23E-02
    74 Broy./Diag. 0.10E+00    5.3     0.11682266      -149.6687065026  3.55E-02
    75 Broy./Diag. 0.10E+00    5.3     0.06621688      -149.7097647125 -4.11E-02
    76 Broy./Diag. 0.10E+00    5.2     0.17793200      -149.6554947750  5.43E-02
    77 Broy./Diag. 0.10E+00    5.3     0.19488848      -149.5913577267  6.41E-02
    78 Broy./Diag. 0.10E+00    5.3     0.02418996      -149.6243971297 -3.30E-02
    79 Broy./Diag. 0.10E+00    5.4     0.06050037      -149.6040900553  2.03E-02
    80 Broy./Diag. 0.10E+00    5.3     0.02745347      -149.6440745535 -4.00E-02
    81 Broy./Diag. 0.10E+00    5.3     0.05569732      -149.6492044315 -5.13E-03
    82 Broy./Diag. 0.10E+00    5.3     0.07625719      -149.6612039216 -1.20E-02
    83 Broy./Diag. 0.10E+00    5.2     0.19002038      -149.6987207370 -3.75E-02
    84 Broy./Diag. 0.10E+00    5.3     0.23534507      -149.7285014413 -2.98E-02
    85 Broy./Diag. 0.10E+00    5.3     0.13777153      -149.7556558350 -2.72E-02
    86 Broy./Diag. 0.10E+00    5.3     0.14457545      -149.7773300042 -2.17E-02
    87 Broy./Diag. 0.10E+00    5.3     0.10605921      -149.8081030018 -3.08E-02
    88 Broy./Diag. 0.10E+00    5.5     0.07937771      -149.8282128038 -2.01E-02
    89 Broy./Diag. 0.10E+00    5.3     0.06283228      -149.8289410881 -7.28E-04
    90 Broy./Diag. 0.10E+00    5.3     0.33634772      -149.6274641511  2.01E-01
    91 Broy./Diag. 0.10E+00    5.3     0.30282199      -149.5929207674  3.45E-02
    92 Broy./Diag. 0.10E+00    5.3     0.17197974      -149.6326348132 -3.97E-02
    93 Broy./Diag. 0.10E+00    5.3     0.09454334      -149.6892576731 -5.66E-02
    94 Broy./Diag. 0.10E+00    5.3     0.06287788      -149.6761257345  1.31E-02
    95 Broy./Diag. 0.10E+00    5.3     0.04345209      -149.6910802643 -1.50E-02
    96 Broy./Diag. 0.10E+00    5.3     0.02669113      -149.6658765850  2.52E-02
    97 Broy./Diag. 0.10E+00    5.3     0.05679829      -149.7360761582 -7.02E-02
    98 Broy./Diag. 0.10E+00    5.3     0.07797631      -149.7281145796  7.96E-03
    99 Broy./Diag. 0.10E+00    5.3     0.07809065      -149.7097601531  1.84E-02
   100 Broy./Diag. 0.10E+00    5.3     0.07342647      -149.7087720511  9.88E-04
   101 Broy./Diag. 0.10E+00    5.3     0.01646339      -149.7382517202 -2.95E-02
   102 Broy./Diag. 0.10E+00    5.3     0.01609479      -149.7661077915 -2.79E-02
   103 Broy./Diag. 0.10E+00    5.3     0.01764294      -149.7741283675 -8.02E-03
   104 Broy./Diag. 0.10E+00    5.3     0.03504753      -149.7528944882  2.12E-02
   105 Broy./Diag. 0.10E+00    5.3     0.00730804      -149.7392744891  1.36E-02
   106 Broy./Diag. 0.10E+00    5.3     0.00275274      -149.7371358875  2.14E-03
   107 Broy./Diag. 0.10E+00    5.3     0.00068969      -149.7344256163  2.71E-03
   108 Broy./Diag. 0.10E+00    5.3     0.00718605      -149.7266631940  7.76E-03
   109 Broy./Diag. 0.10E+00    5.3     0.00165526      -149.7247200419  1.94E-03
   110 Broy./Diag. 0.10E+00    5.3     0.00106399      -149.7228259042  1.89E-03
   111 Broy./Diag. 0.10E+00    5.3     0.00202019      -149.7209037854  1.92E-03
   112 Broy./Diag. 0.10E+00    5.3     0.00370217      -149.7175179598  3.39E-03
   113 Broy./Diag. 0.10E+00    5.4     0.00258702      -149.7144386855  3.08E-03
   114 Broy./Diag. 0.10E+00    5.3     0.00065828      -149.7134426878  9.96E-04
   115 Broy./Diag. 0.10E+00    5.3     0.00189280      -149.7132657045  1.77E-04
   116 Broy./Diag. 0.10E+00    5.2     0.00032747      -149.7141993326 -9.34E-04
   117 Broy./Diag. 0.10E+00    5.3     0.00035951      -149.7150158812 -8.17E-04
   118 Broy./Diag. 0.10E+00    5.4     0.00121157      -149.7151235039 -1.08E-04
   119 Broy./Diag. 0.10E+00    5.4     0.00056261      -149.7151449475 -2.14E-05
   120 Broy./Diag. 0.10E+00    5.3     0.00033558      -149.7152124605 -6.75E-05
   121 Broy./Diag. 0.10E+00    5.3     0.00068201      -149.7149835599  2.29E-04
   122 Broy./Diag. 0.10E+00    5.3     0.00046686      -149.7146336932  3.50E-04
   123 Broy./Diag. 0.10E+00    5.3     0.00010467      -149.7142989004  3.35E-04
   124 Broy./Diag. 0.10E+00    5.3     0.00008775      -149.7139576514  3.41E-04
   125 Broy./Diag. 0.10E+00    5.3     0.00026316      -149.7135246815  4.33E-04
   126 Broy./Diag. 0.10E+00    5.3     0.00061042      -149.7133063633  2.18E-04
   127 Broy./Diag. 0.10E+00    5.3     0.00005133      -149.7133884551 -8.21E-05
   128 Broy./Diag. 0.10E+00    5.3     0.00008200      -149.7133310131  5.74E-05
   129 Broy./Diag. 0.10E+00    5.3     0.00006970      -149.7132771705  5.38E-05
   130 Broy./Diag. 0.10E+00    5.3     0.00006786      -149.7132602766  1.69E-05
   131 Broy./Diag. 0.10E+00    5.3     0.00017618      -149.7133251684 -6.49E-05
   132 Broy./Diag. 0.10E+00    5.3     0.00018381      -149.7133710096 -4.58E-05
   133 Broy./Diag. 0.10E+00    5.3     0.00006064      -149.7133698807  1.13E-06
   134 Broy./Diag. 0.10E+00    5.3     0.00014984      -149.7133676894  2.19E-06
   135 Broy./Diag. 0.10E+00    5.2     0.00017760      -149.7133450320  2.27E-05
   136 Broy./Diag. 0.10E+00    5.3     0.00013813      -149.7133082956  3.67E-05
   137 Broy./Diag. 0.10E+00    5.3     0.00020254      -149.7132913021  1.70E-05
   138 Broy./Diag. 0.10E+00    5.3     0.00049724      -149.7132780886  1.32E-05
   139 Broy./Diag. 0.10E+00    5.4     0.00078973      -149.7132945778 -1.65E-05
   140 Broy./Diag. 0.10E+00    5.3     0.00131949      -149.7132959582 -1.38E-06
   141 Broy./Diag. 0.10E+00    5.3     0.00213164      -149.7132936586  2.30E-06
   142 Broy./Diag. 0.10E+00    5.3     0.00343487      -149.7132906298  3.03E-06
   143 Broy./Diag. 0.10E+00    5.3     0.00553434      -149.7132872895  3.34E-06
   144 Broy./Diag. 0.10E+00    5.3     0.00896800      -149.7132751179  1.22E-05
   145 Broy./Diag. 0.10E+00    5.3     0.01482757      -149.7133076458 -3.25E-05
   146 Broy./Diag. 0.10E+00    5.3     0.02385005      -149.7133003951  7.25E-06
   147 Broy./Diag. 0.10E+00    5.3     0.03873470      -149.7131722166  1.28E-04
   148 Broy./Diag. 0.10E+00    5.3     0.06012435      -149.7130095570  1.63E-04
   149 Broy./Diag. 0.10E+00    5.3     0.08665762      -149.7125630883  4.46E-04
   150 Broy./Diag. 0.10E+00    5.3     0.12700086      -149.7113473663  1.22E-03
   151 Broy./Diag. 0.10E+00    5.3     0.20516388      -149.7084791684  2.87E-03
   152 Broy./Diag. 0.10E+00    5.3     0.25323108      -149.7027856422  5.69E-03
   153 Broy./Diag. 0.10E+00    5.3     0.22730102      -149.6941202818  8.67E-03
   154 Broy./Diag. 0.10E+00    5.3     0.15415615      -149.6846422311  9.48E-03
   155 Broy./Diag. 0.10E+00    5.3     0.13992813      -149.6766584325  7.98E-03
   156 Broy./Diag. 0.10E+00    5.3     0.11669035      -149.6710711470  5.59E-03
   157 Broy./Diag. 0.10E+00    5.3     0.08934827      -149.6677640442  3.31E-03
   158 Broy./Diag. 0.10E+00    5.3     0.06553686      -149.6659737515  1.79E-03
   159 Broy./Diag. 0.10E+00    5.3     0.04680569      -149.6651066095  8.67E-04
   160 Broy./Diag. 0.10E+00    5.3     0.03090357      -149.6652811060 -1.74E-04
   161 Broy./Diag. 0.10E+00    5.3     0.00180061      -149.6725039807 -7.22E-03
   162 Broy./Diag. 0.10E+00    5.3     0.02998232      -149.6658992990  6.60E-03
   163 Broy./Diag. 0.10E+00    5.4     0.04851996      -149.6661480458 -2.49E-04
   164 Broy./Diag. 0.10E+00    5.3     0.10438364      -149.6651410118  1.01E-03

 *** WARNING in pw/ps_wavelet_methods.F:238 :: Density non-zero on the ***
 *** edges of the unit cell: wrong results in WAVELET solver           ***

   165 Broy./Diag. 0.10E+00    5.3     0.17076363      -149.6385780079  2.66E-02

 *** WARNING in pw/ps_wavelet_methods.F:238 :: Density non-zero on the ***
 *** edges of the unit cell: wrong results in WAVELET solver           ***

   166 Broy./Diag. 0.10E+00    5.3     0.17787691      -149.5302147299  1.08E-01

 *** WARNING in pw/ps_wavelet_methods.F:238 :: Density non-zero on the ***
 *** edges of the unit cell: wrong results in WAVELET solver           ***

   167 Broy./Diag. 0.10E+00    5.4     0.14688468      -149.4469403223  8.33E-02

 *** WARNING in pw/ps_wavelet_methods.F:238 :: Density non-zero on the ***
 *** edges of the unit cell: wrong results in WAVELET solver           ***

   168 Broy./Diag. 0.10E+00    5.3     0.11535849      -149.5983145771 -1.51E-01
   169 Broy./Diag. 0.10E+00    5.3     0.08408874      -150.0050841711 -4.07E-01
   170 Broy./Diag. 0.10E+00    5.3     0.03805390      -149.9254873813  7.96E-02
   171 Broy./Diag. 0.10E+00    5.3     0.11089609      -149.9192947972  6.19E-03
   172 Broy./Diag. 0.10E+00    5.3     0.13613869      -149.9346989193 -1.54E-02
   173 Broy./Diag. 0.10E+00    5.3     0.32369533      -149.8120632632  1.23E-01
   174 Broy./Diag. 0.10E+00    5.3     0.31280219      -149.7906275509  2.14E-02
   175 Broy./Diag. 0.10E+00    5.3     0.13258141      -149.7674994216  2.31E-02
   176 Broy./Diag. 0.10E+00    5.3     0.10255840      -149.7489862957  1.85E-02
   177 Broy./Diag. 0.10E+00    5.3     0.01525412      -149.7225971072  2.64E-02
   178 Broy./Diag. 0.10E+00    5.3     0.01513406      -149.6861907590  3.64E-02
   179 Broy./Diag. 0.10E+00    5.3     0.01299297      -149.6436462360  4.25E-02
   180 Broy./Diag. 0.10E+00    5.3     0.01078029      -149.6224071519  2.12E-02
   181 Broy./Diag. 0.10E+00    5.3     0.00573120      -149.6155663897  6.84E-03
   182 Broy./Diag. 0.10E+00    5.2     0.00868992      -149.6371982224 -2.16E-02
   183 Broy./Diag. 0.10E+00    5.3     0.02445015      -149.6809359701 -4.37E-02
   184 Broy./Diag. 0.10E+00    5.3     0.03245443      -149.7172859802 -3.64E-02
   185 Broy./Diag. 0.10E+00    5.3     0.00726551      -149.7272971387 -1.00E-02
   186 Broy./Diag. 0.10E+00    5.3     0.00386803      -149.7265883204  7.09E-04
   187 Broy./Diag. 0.10E+00    5.3     0.00915660      -149.7309096497 -4.32E-03
   188 Broy./Diag. 0.10E+00    5.3     0.00330330      -149.7370132198 -6.10E-03
   189 Broy./Diag. 0.10E+00    5.3     0.00651935      -149.7375820010 -5.69E-04
   190 Broy./Diag. 0.10E+00    5.2     0.01782974      -149.7295714719  8.01E-03
   191 Broy./Diag. 0.10E+00    5.3     0.02003266      -149.7177648509  1.18E-02
   192 Broy./Diag. 0.10E+00    5.3     0.02556440      -149.7144842701  3.28E-03
   193 Broy./Diag. 0.10E+00    5.3     0.04283908      -149.7140089760  4.75E-04
   194 Broy./Diag. 0.10E+00    5.4     0.06496441      -149.7140596833 -5.07E-05
   195 Broy./Diag. 0.10E+00    5.3     0.10448103      -149.7131846843  8.75E-04
   196 Broy./Diag. 0.10E+00    5.2     0.15857181      -149.7135706047 -3.86E-04
   197 Broy./Diag. 0.10E+00    5.3     0.19597649      -149.7123954594  1.18E-03
   198 Broy./Diag. 0.10E+00    5.2     0.18500093      -149.7078113014  4.58E-03
   199 Broy./Diag. 0.10E+00    5.2     0.22882841      -149.6963693691  1.14E-02
   200 Broy./Diag. 0.10E+00    5.3     0.20885339      -149.6870801063  9.29E-03
   201 Broy./Diag. 0.10E+00    5.4     0.15865829      -149.6777318601  9.35E-03
   202 Broy./Diag. 0.10E+00    5.2     0.10841398      -149.6727262896  5.01E-03
   203 Broy./Diag. 0.10E+00    5.2     0.07505333      -149.6696220104  3.10E-03
   204 Broy./Diag. 0.10E+00    5.3     0.05653634      -149.6667286369  2.89E-03
   205 Broy./Diag. 0.10E+00    5.3     0.04977361      -149.6666477938  8.08E-05
   206 Broy./Diag. 0.10E+00    5.2     0.04944177      -149.6713115647 -4.66E-03
   207 Broy./Diag. 0.10E+00    5.2     0.05749713      -149.6823449364 -1.10E-02
   208 Broy./Diag. 0.10E+00    5.4     0.07261021      -149.6880754788 -5.73E-03
   209 Broy./Diag. 0.10E+00    5.3     0.14328478      -149.6917280965 -3.65E-03

 *** WARNING in pw/ps_wavelet_methods.F:238 :: Density non-zero on the ***
 *** edges of the unit cell: wrong results in WAVELET solver           ***

   210 Broy./Diag. 0.10E+00    5.2     0.19352798      -149.6620220847  2.97E-02

 *** WARNING in pw/ps_wavelet_methods.F:238 :: Density non-zero on the ***
 *** edges of the unit cell: wrong results in WAVELET solver           ***

   211 Broy./Diag. 0.10E+00    5.3     0.14355663      -149.6548786114  7.14E-03

 *** WARNING in pw/ps_wavelet_methods.F:238 :: Density non-zero on the ***
 *** edges of the unit cell: wrong results in WAVELET solver           ***

   212 Broy./Diag. 0.10E+00    5.3     0.07406003      -149.7182206258 -6.33E-02
   213 Broy./Diag. 0.10E+00    5.3     0.04265300      -149.7946143216 -7.64E-02
   214 Broy./Diag. 0.10E+00    5.3     0.02001127      -149.8098676623 -1.53E-02
   215 Broy./Diag. 0.10E+00    5.3     0.01240565      -149.7995008166  1.04E-02
   216 Broy./Diag. 0.10E+00    5.3     0.02059692      -149.7332414017  6.63E-02
   217 Broy./Diag. 0.10E+00    5.4     0.11485441      -149.7796552476 -4.64E-02
   218 Broy./Diag. 0.10E+00    5.3     0.17936009      -149.8787324434 -9.91E-02
   219 Broy./Diag. 0.10E+00    5.4     0.03163187      -149.8707405828  7.99E-03
   220 Broy./Diag. 0.10E+00    5.3     0.03469231      -149.8561242444  1.46E-02
   221 Broy./Diag. 0.10E+00    5.4     0.01649685      -149.8676377872 -1.15E-02
   222 Broy./Diag. 0.10E+00    5.3     0.06976672      -149.8700692500 -2.43E-03
   223 Broy./Diag. 0.10E+00    5.2     0.01244638      -149.8057448760  6.43E-02
   224 Broy./Diag. 0.10E+00    5.3     0.01451186      -149.7990000025  6.74E-03
   225 Broy./Diag. 0.10E+00    5.4     0.06742189      -149.7838411387  1.52E-02
   226 Broy./Diag. 0.10E+00    5.3     0.09542507      -149.7729029625  1.09E-02
   227 Broy./Diag. 0.10E+00    5.3     0.09466370      -149.7778299464 -4.93E-03
   228 Broy./Diag. 0.10E+00    5.3     0.10346952      -149.7781356423 -3.06E-04
   229 Broy./Diag. 0.10E+00    5.3     0.13104088      -149.7772269616  9.09E-04
   230 Broy./Diag. 0.10E+00    5.3     0.21141605      -149.7723011568  4.93E-03
   231 Broy./Diag. 0.10E+00    5.3     0.24631217      -149.7608463085  1.15E-02
   232 Broy./Diag. 0.10E+00    5.3     0.21306733      -149.7610842705 -2.38E-04
   233 Broy./Diag. 0.10E+00    5.3     0.15417558      -149.7545530541  6.53E-03
   234 Broy./Diag. 0.10E+00    5.3     0.12022444      -149.7460404980  8.51E-03
   235 Broy./Diag. 0.10E+00    5.3     0.09749869      -149.7326824450  1.34E-02
   236 Broy./Diag. 0.10E+00    5.3     0.06700014      -149.7200761805  1.26E-02
   237 Broy./Diag. 0.10E+00    5.3     0.06106040      -149.7122819902  7.79E-03
   238 Broy./Diag. 0.10E+00    5.4     0.08235872      -149.7102065961  2.08E-03
   239 Broy./Diag. 0.10E+00    5.3     0.11450235      -149.7138483836 -3.64E-03
   240 Broy./Diag. 0.10E+00    5.3     0.14719157      -149.7221183653 -8.27E-03
   241 Broy./Diag. 0.10E+00    5.3     0.14934255      -149.7771652549 -5.50E-02
   242 Broy./Diag. 0.10E+00    5.4     0.10587524      -149.8047382292 -2.76E-02

 *** WARNING in pw/ps_wavelet_methods.F:238 :: Density non-zero on the ***
 *** edges of the unit cell: wrong results in WAVELET solver           ***

   243 Broy./Diag. 0.10E+00    5.3     0.10392549      -149.8553804320 -5.06E-02

 *** WARNING in pw/ps_wavelet_methods.F:238 :: Density non-zero on the ***
 *** edges of the unit cell: wrong results in WAVELET solver           ***

   244 Broy./Diag. 0.10E+00    5.3     0.13063469      -149.8137209044  4.17E-02
   245 Broy./Diag. 0.10E+00    5.3     0.13677781      -149.6346141309  1.79E-01
   246 Broy./Diag. 0.10E+00    5.3     0.09544209      -149.5234754548  1.11E-01
   247 Broy./Diag. 0.10E+00    5.3     0.06210974      -149.5592644960 -3.58E-02
   248 Broy./Diag. 0.10E+00    5.3     0.03879940      -149.6018055665 -4.25E-02
   249 Broy./Diag. 0.10E+00    5.3     0.04271135      -149.6217725413 -2.00E-02
   250 Broy./Diag. 0.10E+00    5.3     0.04286101      -149.6544090500 -3.26E-02
   251 Broy./Diag. 0.10E+00    5.3     0.00905853      -149.7083163140 -5.39E-02
   252 Broy./Diag. 0.10E+00    5.3     0.01092327      -149.7406706566 -3.24E-02
   253 Broy./Diag. 0.10E+00    5.3     0.04964229      -149.7504076522 -9.74E-03
   254 Broy./Diag. 0.10E+00    5.3     0.03261638      -149.7700841375 -1.97E-02
   255 Broy./Diag. 0.10E+00    5.3     0.02603126      -149.7777317414 -7.65E-03
   256 Broy./Diag. 0.10E+00    5.3     0.00973542      -149.7763070800  1.42E-03
   257 Broy./Diag. 0.10E+00    5.3     0.01310366      -149.7688860197  7.42E-03
   258 Broy./Diag. 0.10E+00    5.3     0.00950492      -149.7564856470  1.24E-02
   259 Broy./Diag. 0.10E+00    5.3     0.00838023      -149.7436245936  1.29E-02
   260 Broy./Diag. 0.10E+00    5.3     0.00801760      -149.7391796917  4.44E-03
   261 Broy./Diag. 0.10E+00    5.3     0.00868601      -149.7384290638  7.51E-04
   262 Broy./Diag. 0.10E+00    5.3     0.02364314      -149.7369710377  1.46E-03
   263 Broy./Diag. 0.10E+00    5.3     0.03741339      -149.7365444127  4.27E-04
   264 Broy./Diag. 0.10E+00    5.3     0.06068714      -149.7357901188  7.54E-04
   265 Broy./Diag. 0.10E+00    5.3     0.09872482      -149.7339229161  1.87E-03
   266 Broy./Diag. 0.10E+00    5.3     0.14968077      -149.7305968265  3.33E-03
   267 Broy./Diag. 0.10E+00    5.3     0.16953104      -149.7284090087  2.19E-03
   268 Broy./Diag. 0.10E+00    5.3     0.19806408      -149.7212928096  7.12E-03
   269 Broy./Diag. 0.10E+00    5.3     0.24261524      -149.7186132525  2.68E-03
   270 Broy./Diag. 0.10E+00    5.3     0.21874277      -149.7110614692  7.55E-03
   271 Broy./Diag. 0.10E+00    5.3     0.15665576      -149.7014723570  9.59E-03
   272 Broy./Diag. 0.10E+00    5.3     0.10391953      -149.6956614816  5.81E-03
   273 Broy./Diag. 0.10E+00    5.3     0.07595280      -149.6923609665  3.30E-03
   274 Broy./Diag. 0.10E+00    5.2     0.06063397      -149.6887087881  3.65E-03
   275 Broy./Diag. 0.10E+00    5.3     0.03847945      -149.6827401953  5.97E-03
   276 Broy./Diag. 0.10E+00    5.3     0.03989046      -149.6796964673  3.04E-03
   277 Broy./Diag. 0.10E+00    5.3     0.06044710      -149.6680804568  1.16E-02
   278 Broy./Diag. 0.10E+00    5.3     0.09456593      -149.6487147943  1.94E-02
   279 Broy./Diag. 0.10E+00    5.4     0.14845358      -149.6195191893  2.92E-02
   280 Broy./Diag. 0.10E+00    5.3     0.18273509      -149.5887932515  3.07E-02
   281 Broy./Diag. 0.10E+00    5.3     0.12952457      -149.6055852353 -1.68E-02
   282 Broy./Diag. 0.10E+00    5.3     0.06755629      -149.6901061026 -8.45E-02
   283 Broy./Diag. 0.10E+00    5.3     0.05168631      -149.8228482667 -1.33E-01
   284 Broy./Diag. 0.10E+00    5.3     0.10221737      -149.7976755074  2.52E-02
   285 Broy./Diag. 0.10E+00    5.3     0.06460113      -149.7487434996  4.89E-02
   286 Broy./Diag. 0.10E+00    5.3     0.08818391      -149.6876489196  6.11E-02
   287 Broy./Diag. 0.10E+00    5.3     0.12964426      -149.6816151329  6.03E-03
   288 Broy./Diag. 0.10E+00    5.3     0.19589555      -149.6862705007 -4.66E-03
   289 Broy./Diag. 0.10E+00    5.4     0.25444822      -149.6911115365 -4.84E-03
   290 Broy./Diag. 0.10E+00    5.3     0.28353942      -149.6888002890  2.31E-03
   291 Broy./Diag. 0.10E+00    5.3     0.17988677      -149.6927916112 -3.99E-03
   292 Broy./Diag. 0.10E+00    5.3     0.08910502      -149.6942995378 -1.51E-03
   293 Broy./Diag. 0.10E+00    5.3     0.02847787      -149.7109893835 -1.67E-02
   294 Broy./Diag. 0.10E+00    5.3     0.01492655      -149.7217590040 -1.08E-02
   295 Broy./Diag. 0.10E+00    5.3     0.00284471      -149.7220835964 -3.25E-04
   296 Broy./Diag. 0.10E+00    5.2     0.02923188      -149.7270071734 -4.92E-03
   297 Broy./Diag. 0.10E+00    5.3     0.07043803      -149.7462592819 -1.93E-02
   298 Broy./Diag. 0.10E+00    5.3     0.09024633      -149.7773376300 -3.11E-02
   299 Broy./Diag. 0.10E+00    5.3     0.04942453      -149.8134136709 -3.61E-02
   300 Broy./Diag. 0.10E+00    5.3     0.07440131      -149.8298602670 -1.64E-02
   301 Broy./Diag. 0.10E+00    5.3     0.01520597      -149.8421328673 -1.23E-02
   302 Broy./Diag. 0.10E+00    5.3     0.00259345      -149.8302519909  1.19E-02
   303 Broy./Diag. 0.10E+00    5.3     0.01021872      -149.8013803399  2.89E-02
   304 Broy./Diag. 0.10E+00    5.2     0.00430219      -149.7713230000  3.01E-02
   305 Broy./Diag. 0.10E+00    5.3     0.00367542      -149.7408693349  3.05E-02
   306 Broy./Diag. 0.10E+00    5.2     0.01035811      -149.7175235691  2.33E-02
   307 Broy./Diag. 0.10E+00    5.3     0.00293259      -149.7121857996  5.34E-03
   308 Broy./Diag. 0.10E+00    5.3     0.00341161      -149.7113594397  8.26E-04
   309 Broy./Diag. 0.10E+00    5.3     0.00445471      -149.7151068098 -3.75E-03
   310 Broy./Diag. 0.10E+00    5.3     0.00360625      -149.7210763099 -5.97E-03
   311 Broy./Diag. 0.10E+00    5.3     0.00115161      -149.7238548447 -2.78E-03
   312 Broy./Diag. 0.10E+00    5.3     0.00178523      -149.7240467726 -1.92E-04
   313 Broy./Diag. 0.10E+00    5.3     0.00215215      -149.7209448927  3.10E-03
   314 Broy./Diag. 0.10E+00    5.3     0.00186192      -149.7171802228  3.76E-03
   315 Broy./Diag. 0.10E+00    5.3     0.00230450      -149.7154612172  1.72E-03
   316 Broy./Diag. 0.10E+00    5.3     0.00096468      -149.7142837330  1.18E-03
   317 Broy./Diag. 0.10E+00    5.3     0.00033624      -149.7131497736  1.13E-03
   318 Broy./Diag. 0.10E+00    5.2     0.00127373      -149.7127880297  3.62E-04
   319 Broy./Diag. 0.10E+00    5.2     0.00069136      -149.7129239535 -1.36E-04
   320 Broy./Diag. 0.10E+00    5.3     0.00038420      -149.7129087494  1.52E-05
   321 Broy./Diag. 0.10E+00    5.3     0.00085506      -149.7125634239  3.45E-04
   322 Broy./Diag. 0.10E+00    5.3     0.00070798      -149.7128531291 -2.90E-04
   323 Broy./Diag. 0.10E+00    5.3     0.00068025      -149.7130098273 -1.57E-04
   324 Broy./Diag. 0.10E+00    5.3     0.00039989      -149.7128784529  1.31E-04
   325 Broy./Diag. 0.10E+00    5.3     0.00028117      -149.7129830190 -1.05E-04
   326 Broy./Diag. 0.10E+00    5.2     0.00009852      -149.7134886087 -5.06E-04
   327 Broy./Diag. 0.10E+00    5.2     0.00036842      -149.7137903110 -3.02E-04
   328 Broy./Diag. 0.10E+00    5.4     0.00019007      -149.7137319582  5.84E-05
   329 Broy./Diag. 0.10E+00    5.3     0.00017891      -149.7134961462  2.36E-04
   330 Broy./Diag. 0.10E+00    5.3     0.00020021      -149.7134307540  6.54E-05
   331 Broy./Diag. 0.10E+00    5.3     0.00024180      -149.7134008800  2.99E-05
   332 Broy./Diag. 0.10E+00    5.3     0.00018462      -149.7132432278  1.58E-04
   333 Broy./Diag. 0.10E+00    5.3     0.00005418      -149.7131737910  6.94E-05
   334 Broy./Diag. 0.10E+00    5.2     0.00007397      -149.7131536999  2.01E-05
   335 Broy./Diag. 0.10E+00    5.3     0.00008744      -149.7131488252  4.87E-06
   336 Broy./Diag. 0.10E+00    5.3     0.00014831      -149.7132491528 -1.00E-04
   337 Broy./Diag. 0.10E+00    5.3     0.00020271      -149.7133234257 -7.43E-05
   338 Broy./Diag. 0.10E+00    5.3     0.00005151      -149.7132947941  2.86E-05
   339 Broy./Diag. 0.10E+00    5.3     0.00013985      -149.7132677368  2.71E-05
   340 Broy./Diag. 0.10E+00    5.4     0.00017399      -149.7133217397 -5.40E-05
   341 Broy./Diag. 0.10E+00    5.3     0.00017910      -149.7133327518 -1.10E-05
   342 Broy./Diag. 0.10E+00    5.3     0.00001233      -149.7132693981  6.34E-05
   343 Broy./Diag. 0.10E+00    5.3     0.00005150      -149.7132398150  2.96E-05
   344 Broy./Diag. 0.10E+00    5.3     0.00011698      -149.7132393406  4.74E-07
   345 Broy./Diag. 0.10E+00    5.4     0.00014601      -149.7132289684  1.04E-05
   346 Broy./Diag. 0.10E+00    5.3     0.00012355      -149.7132049653  2.40E-05
   347 Broy./Diag. 0.10E+00    5.3     0.00009224      -149.7131827671  2.22E-05
   348 Broy./Diag. 0.10E+00    5.3     0.00004627      -149.7131791413  3.63E-06
   349 Broy./Diag. 0.10E+00    5.3     0.00007634      -149.7132048271 -2.57E-05
   350 Broy./Diag. 0.10E+00    5.3     0.00011259      -149.7132343924 -2.96E-05
   351 Broy./Diag. 0.10E+00    5.2     0.00013876      -149.7132449109 -1.05E-05
   352 Broy./Diag. 0.10E+00    5.3     0.00019468      -149.7132445682  3.43E-07
   353 Broy./Diag. 0.10E+00    5.3     0.00033560      -149.7132435914  9.77E-07
   354 Broy./Diag. 0.10E+00    5.3     0.00058270      -149.7132386701  4.92E-06
   355 Broy./Diag. 0.10E+00    5.3     0.00101264      -149.7132321672  6.50E-06
   356 Broy./Diag. 0.10E+00    5.3     0.00172238      -149.7132269058  5.26E-06
   357 Broy./Diag. 0.10E+00    5.3     0.00303117      -149.7132025170  2.44E-05
   358 Broy./Diag. 0.10E+00    5.3     0.00516065      -149.7132005427  1.97E-06
   359 Broy./Diag. 0.10E+00    5.2     0.00860332      -149.7132622603 -6.17E-05
   360 Broy./Diag. 0.10E+00    5.3     0.01391935      -149.7133506154 -8.84E-05
   361 Broy./Diag. 0.10E+00    5.3     0.02162872      -149.7133699570 -1.93E-05
   362 Broy./Diag. 0.10E+00    5.3     0.03433496      -149.7133320734  3.79E-05
   363 Broy./Diag. 0.10E+00    5.3     0.05420396      -149.7131539921  1.78E-04
   364 Broy./Diag. 0.10E+00    5.3     0.08133576      -149.7127147000  4.39E-04
   365 Broy./Diag. 0.10E+00    5.4     0.10677867      -149.7117128206  1.00E-03
   366 Broy./Diag. 0.10E+00    5.3     0.18043392      -149.7093527326  2.36E-03
   367 Broy./Diag. 0.10E+00    5.4     0.24557666      -149.7044792964  4.87E-03
   368 Broy./Diag. 0.10E+00    5.3     0.24355350      -149.6965451979  7.93E-03
   369 Broy./Diag. 0.10E+00    5.3     0.18011905      -149.6870503603  9.49E-03
   370 Broy./Diag. 0.10E+00    5.4     0.13875877      -149.6785250472  8.53E-03
   371 Broy./Diag. 0.10E+00    5.3     0.12259241      -149.6724940558  6.03E-03
   372 Broy./Diag. 0.10E+00    5.3     0.09682132      -149.6686604824  3.83E-03
   373 Broy./Diag. 0.10E+00    5.3     0.07225452      -149.6663630982  2.30E-03
   374 Broy./Diag. 0.10E+00    5.3     0.05247738      -149.6650511730  1.31E-03
   375 Broy./Diag. 0.10E+00    5.3     0.03706094      -149.6642589018  7.92E-04
   376 Broy./Diag. 0.10E+00    5.3     0.02040653      -149.6651391338 -8.80E-04
   377 Broy./Diag. 0.10E+00    5.3     0.01172341      -149.6598111245  5.33E-03
   378 Broy./Diag. 0.10E+00    5.3     0.00914367      -149.6633188751 -3.51E-03
   379 Broy./Diag. 0.10E+00    5.3     0.19910818      -149.6908396309 -2.75E-02

 *** WARNING in pw/ps_wavelet_methods.F:238 :: Density non-zero on the ***
 *** edges of the unit cell: wrong results in WAVELET solver           ***

   380 Broy./Diag. 0.10E+00    5.3     0.20903397      -149.6745902470  1.62E-02

 *** WARNING in pw/ps_wavelet_methods.F:238 :: Density non-zero on the ***
 *** edges of the unit cell: wrong results in WAVELET solver           ***

   381 Broy./Diag. 0.10E+00    5.3     0.12174170      -149.6928716755 -1.83E-02
   382 Broy./Diag. 0.10E+00    5.3     0.10435994      -149.7973037655 -1.04E-01

 *** WARNING in pw/ps_wavelet_methods.F:238 :: Density non-zero on the ***
 *** edges of the unit cell: wrong results in WAVELET solver           ***

   383 Broy./Diag. 0.10E+00    5.3     0.05139888      -149.9255254066 -1.28E-01
   384 Broy./Diag. 0.10E+00    5.3     0.21087776      -149.9040529719  2.15E-02
[...]
   427 Broy./Diag. 0.10E+00    5.3     0.06181392      -149.8285829098 -3.80E-02
   428 Broy./Diag. 0.10E+00    5.4     0.03913475      -149.8539071702 -2.53E-02
   429 Broy./Diag. 0.10E+00    5.3     0.02237730      -149.8624302707 -8.52E-03
   430 Broy./Diag. 0.10E+00    5.4     0.01275889      -149.8658508602 -3.42E-03
   431 Broy./Diag. 0.10E+00    5.3     0.00243684      -149.8541549679  1.17E-02
   432 Broy./Diag. 0.10E+00    5.3     0.02008676      -149.8036621226  5.05E-02
   433 Broy./Diag. 0.10E+00    5.3     0.03049515      -149.7714263949  3.22E-02
   434 Broy./Diag. 0.10E+00    5.3     0.05087639      -149.7576150000  1.38E-02
   435 Broy./Diag. 0.10E+00    5.3     0.05758457      -149.7557734197  1.84E-03
   436 Broy./Diag. 0.10E+00    5.3     0.11781371      -149.7447234135  1.11E-02
   437 Broy./Diag. 0.10E+00    5.3     0.19016066      -149.7470273723 -2.30E-03
   438 Broy./Diag. 0.10E+00    5.3     0.26642660      -149.7359576959  1.11E-02
   439 Broy./Diag. 0.10E+00    5.3     0.22802381      -149.7335770436  2.38E-03
   440 Broy./Diag. 0.10E+00    5.3     0.16166421      -149.7198179837  1.38E-02
   441 Broy./Diag. 0.10E+00    5.4     0.16773115      -149.6972717256  2.25E-02
   442 Broy./Diag. 0.10E+00    5.3     0.13300973      -149.6960473624  1.22E-03
   443 Broy./Diag. 0.10E+00    5.3     0.09573062      -149.6960074328  3.99E-05
   444 Broy./Diag. 0.10E+00    5.3     0.07173554      -149.6991508312 -3.14E-03
   445 Broy./Diag. 0.10E+00    5.3     0.06023590      -149.7012287028 -2.08E-03
   446 Broy./Diag. 0.10E+00    5.3     0.07741633      -149.7055194724 -4.29E-03
   447 Broy./Diag. 0.10E+00    5.4     0.10160598      -149.7049654981  5.54E-04
   448 Broy./Diag. 0.10E+00    5.3     0.12244814      -149.7040628226  9.03E-04
   449 Broy./Diag. 0.10E+00    5.3     0.12441288      -149.7014693026  2.59E-03
   450 Broy./Diag. 0.10E+00    5.3     0.12609041      -149.6849801299  1.65E-02
   451 Broy./Diag. 0.10E+00    5.3     0.19995485      -149.6905410663 -5.56E-03
   452 Broy./Diag. 0.10E+00    5.4     0.20138299      -149.7916363677 -1.01E-01

 *** WARNING in pw/ps_wavelet_methods.F:238 :: Density non-zero on the ***
 *** edges of the unit cell: wrong results in WAVELET solver           ***

   453 Broy./Diag. 0.10E+00    5.3     0.22981327      -149.8424544894 -5.08E-02

 *** WARNING in pw/ps_wavelet_methods.F:238 :: Density non-zero on the ***
 *** edges of the unit cell: wrong results in WAVELET solver           ***

   454 Broy./Diag. 0.10E+00    5.3     0.09563359      -149.8624187337 -2.00E-02

 *** WARNING in pw/ps_wavelet_methods.F:238 :: Density non-zero on the ***
 *** edges of the unit cell: wrong results in WAVELET solver           ***

   455 Broy./Diag. 0.10E+00    5.3     0.10715494      -149.8472699396  1.51E-02
   456 Broy./Diag. 0.10E+00    5.3     0.02902782      -149.7578357889  8.94E-02
   457 Broy./Diag. 0.10E+00    5.3     0.02194734      -149.7081567116  4.97E-02
   458 Broy./Diag. 0.10E+00    5.3     0.05051356      -149.6995757883  8.58E-03
   459 Broy./Diag. 0.10E+00    5.3     0.22896024      -149.6633485146  3.62E-02
   460 Broy./Diag. 0.10E+00    5.3     0.37800284      -149.6867060400 -2.34E-02
   461 Broy./Diag. 0.10E+00    5.3     0.18425749      -149.7296798421 -4.30E-02
   462 Broy./Diag. 0.10E+00    5.3     0.03759567      -149.7349068741 -5.23E-03
   463 Broy./Diag. 0.10E+00    5.3     0.15556951      -149.8167398595 -8.18E-02

 *** WARNING in pw/ps_wavelet_methods.F:238 :: Density non-zero on the ***
 *** edges of the unit cell: wrong results in WAVELET solver           ***

   464 Broy./Diag. 0.10E+00    5.3     0.41213228      -149.8170994825 -3.60E-04

 *** WARNING in pw/ps_wavelet_methods.F:238 :: Density non-zero on the ***
 *** edges of the unit cell: wrong results in WAVELET solver           ***

   465 Broy./Diag. 0.10E+00    5.4     0.24084254      -149.8321017349 -1.50E-02
   466 Broy./Diag. 0.10E+00    5.4     0.01828677      -149.7490062992  8.31E-02
   467 Broy./Diag. 0.10E+00    5.3     0.08956295      -149.7555469211 -6.54E-03
   468 Broy./Diag. 0.10E+00    5.3     0.12010451      -149.7891037225 -3.36E-02
   469 Broy./Diag. 0.10E+00    5.3     0.35470101      -149.7157134077  7.34E-02
   470 Broy./Diag. 0.10E+00    5.3     0.28229349      -149.7117616272  3.95E-03
   471 Broy./Diag. 0.10E+00    5.4     0.15556784      -149.6925905049  1.92E-02
   472 Broy./Diag. 0.10E+00    5.3     0.10666054      -149.6794017823  1.32E-02
   473 Broy./Diag. 0.10E+00    5.3     0.05713871      -149.6829115999 -3.51E-03
   474 Broy./Diag. 0.10E+00    5.3     0.00757740      -149.6943500790 -1.14E-02
   475 Broy./Diag. 0.10E+00    5.3     0.05065215      -149.7009230613 -6.57E-03
   476 Broy./Diag. 0.10E+00    5.3     0.08878447      -149.7029528869 -2.03E-03
   477 Broy./Diag. 0.10E+00    5.4     0.14957281      -149.6934492740  9.50E-03
   478 Broy./Diag. 0.10E+00    5.3     0.25917187      -149.6895924179  3.86E-03
   479 Broy./Diag. 0.10E+00    5.3     0.26945605      -149.6802150048  9.38E-03
   480 Broy./Diag. 0.10E+00    5.3     0.14360370      -149.6796622029  5.53E-04
   481 Broy./Diag. 0.10E+00    5.3     0.19943519      -149.6713383268  8.32E-03
   482 Broy./Diag. 0.10E+00    5.3     0.38449989      -149.6546505127  1.67E-02
   483 Broy./Diag. 0.10E+00    5.3     0.24281122      -149.6266785200  2.80E-02
   484 Broy./Diag. 0.10E+00    5.3     0.14491857      -149.6383530387 -1.17E-02
   485 Broy./Diag. 0.10E+00    5.3     0.03896341      -149.7014305499 -6.31E-02
   486 Broy./Diag. 0.10E+00    5.3     0.00624369      -149.6750681483  2.64E-02
   487 Broy./Diag. 0.10E+00    5.3     0.04747647      -149.6649497682  1.01E-02
   488 Broy./Diag. 0.10E+00    5.3     0.07784703      -149.6917385623 -2.68E-02
   489 Broy./Diag. 0.10E+00    5.3     0.08473401      -149.7406296647 -4.89E-02
   490 Broy./Diag. 0.10E+00    5.3     0.05210720      -149.7445919049 -3.96E-03
   491 Broy./Diag. 0.10E+00    5.4     0.02082513      -149.7351045584  9.49E-03
   492 Broy./Diag. 0.10E+00    5.3     0.02280705      -149.7312380985  3.87E-03
   493 Broy./Diag. 0.10E+00    5.3     0.01535566      -149.7300528099  1.19E-03
   494 Broy./Diag. 0.10E+00    5.3     0.00461303      -149.7271145532  2.94E-03
   495 Broy./Diag. 0.10E+00    5.3     0.00803001      -149.7259044294  1.21E-03
   496 Broy./Diag. 0.10E+00    5.4     0.00770848      -149.7278708177 -1.97E-03
   497 Broy./Diag. 0.10E+00    5.3     0.00543196      -149.7278786787 -7.86E-06
   498 Broy./Diag. 0.10E+00    5.4     0.03258319      -149.7250404148  2.84E-03
   499 Broy./Diag. 0.10E+00    5.3     0.03881260      -149.7244313517  6.09E-04
   500 Broy./Diag. 0.10E+00    5.3     0.08024110      -149.7236047255  8.27E-04

  Leaving inner SCF loop after reaching   500 steps.


  Electronic density on regular grids:        -12.0952997443        3.9047002557
  Core density on regular grids:               16.0000000000        0.0000000000
  Hard and soft densities (Lebedev):          -22.9536292190      -19.0488511948
  Total Rho_soft + Rho1_hard - Rho1_soft      -16.0000777685
  Total charge density (r-space):              -0.0000777685
  Total Rho_soft + Rho0_soft (g-space):        -0.0000779712

  Overlap energy of the core charge distribution:               0.00000000200246
  Self energy of the core charge distribution:               -145.82024045573709
  Core Hamiltonian energy:                                    -14.81698891107485
  Hartree energy:                                              27.79233706317001
  Exchange-correlation energy:                                 -5.19936018681369
  Hartree-Fock Exchange energy:                                -4.03152362047980

  GAPW| Exc from hard and soft atomic rho1:                    -7.44246998401359
  GAPW| local Eh = 1 center integrals:                         -0.20535863254287

  Total energy:                                              -149.72360472548945

 *******************************************************************************
 *   ___                                                                       *
 *  /   \                                                                      *
 * [ABORT]                                                                     *
 *  \___/     SCF run NOT converged. To continue the calculation regardless,   *
 *    |             please set the keyword IGNORE_CONVERGENCE_FAILURE.         *
 *  O/|                                                                        *
 * /| |                                                                        *
 * / \                                                            qs_scf.F:611 *
 *******************************************************************************


 ===== Routine Calling Stack ===== 

            3 scf_env_do_scf
            2 qs_energies
            1 CP2K

 *******************************************************************************
 *   ___                                                                       *
 *  /   \                                                                      *
 * [ABORT]                                                                     *
 *  \___/     SCF run NOT converged. To continue the calculation regardless,   *
 *    |             please set the keyword IGNORE_CONVERGENCE_FAILURE.         *
 *  O/|                                                                        *
 * /| |                                                                        *
 * / \                                                            qs_scf.F:611 *
 *******************************************************************************


 ===== Routine Calling Stack ===== 

            3 scf_env_do_scf
            2 qs_energies
            1 CP2K

 *******************************************************************************
 *   ___                                                                       *
 *  /   \                                                                      *
 * [ABORT]                                                                     *
 *  \___/     SCF run NOT converged. To continue the calculation regardless,   *
 *    |             please set the keyword IGNORE_CONVERGENCE_FAILURE.         *
 *  O/|                                                                        *
 * /| |                                                                        *
 * / \                                                            qs_scf.F:611 *
 *******************************************************************************


 ===== Routine Calling Stack ===== 

            3 scf_env_do_scf
            2 qs_energies
            1 CP2K

 *******************************************************************************
 *   ___                                                                       *
 *  /   \                                                                      *
 * [ABORT]                                                                     *
 *  \___/     SCF run NOT converged. To continue the calculation regardless,   *
 *    |             please set the keyword IGNORE_CONVERGENCE_FAILURE.         *
 *  O/|                                                                        *
 * /| |                                                                        *
 * / \                                                            qs_scf.F:611 *
 *******************************************************************************


 ===== Routine Calling Stack ===== 

            3 scf_env_do_scf
            2 qs_energies
            1 CP2K

 *******************************************************************************
 *   ___                                                                       *
 *  /   \                                                                      *
 * [ABORT]                                                                     *
 *  \___/     SCF run NOT converged. To continue the calculation regardless,   *
 *    |             please set the keyword IGNORE_CONVERGENCE_FAILURE.         *
 *  O/|                                                                        *
 * /| |                                                                        *
 * / \                                                            qs_scf.F:611 *
 *******************************************************************************


 ===== Routine Calling Stack ===== 

            3 scf_env_do_scf
            2 qs_energies
            1 CP2K

 *******************************************************************************
 *   ___                                                                       *
 *  /   \                                                                      *
 * [ABORT]                                                                     *
 *  \___/     SCF run NOT converged. To continue the calculation regardless,   *
 *    |             please set the keyword IGNORE_CONVERGENCE_FAILURE.         *
 *  O/|                                                                        *
 * /| |                                                                        *
 * / \                                                            qs_scf.F:611 *
 *******************************************************************************


 ===== Routine Calling Stack ===== 

            3 scf_env_do_scf
            2 qs_energies
            1 CP2K

 *******************************************************************************
 *   ___                                                                       *
 *  /   \                                                                      *
 * [ABORT]                                                                     *
 *  \___/     SCF run NOT converged. To continue the calculation regardless,   *
 *    |             please set the keyword IGNORE_CONVERGENCE_FAILURE.         *
 *  O/|                                                                        *
 * /| |                                                                        *
 * / \                                                            qs_scf.F:611 *
 *******************************************************************************


 ===== Routine Calling Stack ===== 

            3 scf_env_do_scf
            2 qs_energies
            1 CP2K

 *******************************************************************************
 *   ___                                                                       *
 *  /   \                                                                      *
 * [ABORT]                                                                     *
 *  \___/     SCF run NOT converged. To continue the calculation regardless,   *
 *    |             please set the keyword IGNORE_CONVERGENCE_FAILURE.         *
 *  O/|                                                                        *
 * /| |                                                                        *
 * / \                                                            qs_scf.F:611 *
 *******************************************************************************


 ===== Routine Calling Stack ===== 

            3 scf_env_do_scf
            2 qs_energies
            1 CP2K

 *******************************************************************************
 *   ___                                                                       *
 *  /   \                                                                      *
 * [ABORT]                                                                     *
 *  \___/     SCF run NOT converged. To continue the calculation regardless,   *
 *    |             please set the keyword IGNORE_CONVERGENCE_FAILURE.         *
 *  O/|                                                                        *
 * /| |                                                                        *
 * / \                                                            qs_scf.F:611 *
 *******************************************************************************


 ===== Routine Calling Stack ===== 

            3 scf_env_do_scf
            2 qs_energies
            1 CP2K

 *******************************************************************************
 *   ___                                                                       *
 *  /   \                                                                      *
 * [ABORT]                                                                     *
 *  \___/     SCF run NOT converged. To continue the calculation regardless,   *
 *    |             please set the keyword IGNORE_CONVERGENCE_FAILURE.         *
 *  O/|                                                                        *
 * /| |                                                                        *
 * / \                                                            qs_scf.F:611 *
 *******************************************************************************


 ===== Routine Calling Stack ===== 

            3 scf_env_do_scf
            2 qs_energies
            1 CP2K

 *******************************************************************************
 *   ___                                                                       *
 *  /   \                                                                      *
 * [ABORT]                                                                     *
 *  \___/     SCF run NOT converged. To continue the calculation regardless,   *
 *    |             please set the keyword IGNORE_CONVERGENCE_FAILURE.         *
 *  O/|                                                                        *
 * /| |                                                                        *
 * / \                                                            qs_scf.F:611 *
 *******************************************************************************


 ===== Routine Calling Stack ===== 

            3 scf_env_do_scf
            2 qs_energies
            1 CP2K

 *******************************************************************************
 *   ___                                                                       *
 *  /   \                                                                      *
 * [ABORT]                                                                     *
 *  \___/     SCF run NOT converged. To continue the calculation regardless,   *
 *    |             please set the keyword IGNORE_CONVERGENCE_FAILURE.         *
 *  O/|                                                                        *
 * /| |                                                                        *
 * / \                                                            qs_scf.F:611 *
 *******************************************************************************


 ===== Routine Calling Stack ===== 

            3 scf_env_do_scf
            2 qs_energies
            1 CP2K

 *******************************************************************************
 *   ___                                                                       *
 *  /   \                                                                      *
 * [ABORT]                                                                     *
 *  \___/     SCF run NOT converged. To continue the calculation regardless,   *
 *    |             please set the keyword IGNORE_CONVERGENCE_FAILURE.         *
 *  O/|                                                                        *
 * /| |                                                                        *
 * / \                                                            qs_scf.F:611 *
 *******************************************************************************


 ===== Routine Calling Stack ===== 

            3 scf_env_do_scf
            2 qs_energies
            1 CP2K
