 DBCSR| CPU Multiplication driver                                           BLAS (U)
 DBCSR| Multrec recursion limit                                              512 (U)
 DBCSR| Multiplication stack size                                           1000 (D)
 DBCSR| Maximum elements for images                                    UNLIMITED (U)
 DBCSR| Multiplicative factor virtual images                                   1 (U)
 DBCSR| Use multiplication densification                                       T (D)
 DBCSR| Multiplication size stacks                                             3 (U)
 DBCSR| Use memory pool for CPU allocation                                     F (U)
 DBCSR| Number of 3D layers                                               SINGLE (U)
 DBCSR| Use MPI memory allocation                                              F (U)
 DBCSR| Use RMA algorithm                                                      F (U)
 DBCSR| Use Communication thread                                               T (U)
 DBCSR| Communication thread load                                             75 (D)
 DBCSR| MPI: My process id                                                     0
 DBCSR| MPI: Number of processes                                              24
 DBCSR| OMP: Current number of threads                                         4
 DBCSR| OMP: Max number of threads                                             4
 DBCSR| Split modifier for TAS multiplication algorithm                  1.0E+00 (U)


  **** **** ******  **  PROGRAM STARTED AT               2025-03-11 07:10:16.356
 ***** ** ***  *** **   PROGRAM STARTED ON                          i03r08c05s03
 **    ****   ******    PROGRAM STARTED BY                               di38fab
 ***** **    ** ** **   PROGRAM PROCESS ID                               1731152
  **** **  *******  **  PROGRAM STARTED IN /hppfs/scratch/04/di38fab/05_MOL/W4-1
                                           1+ALK/bh/aug-cc-pVTZ

 CP2K| version string:                 CP2K version 2025.1 (Development Version)
 CP2K| source code revision number:                                  git:d2e611a
 CP2K| cp2kflags: omp libint fftw3 libxc parallel scalapack max_contr=4         
 CP2K| is freely available from                            https://www.cp2k.org/
 CP2K| Program compiled at                       Thu 06 Mar 2025 05:09:20 PM CET
 CP2K| Program compiled on                                               login02
 CP2K| Program compiled for                                        Supermuc-foss
 CP2K| Data directory path                  /hppfs/work/pn36zo/di38fab/cp2k/data
 CP2K| Input file name                                                    GW.inp

 GLOBAL| Force Environment number                                              1
 GLOBAL| Basis set file name            /hppfs/scratch/04/di38fab/04_TMD/BASIS_A
 GLOBAL| Potential file name            /hppfs/work/pn36zo/di38fab/cp2k/data/ALL
 GLOBAL| MM Potential file name                                     MM_POTENTIAL
 GLOBAL| Coordinate file name                                      __STD_INPUT__
 GLOBAL| Method name                                                        CP2K
 GLOBAL| Project name                                                       MoS2
 GLOBAL| Run type                                                         ENERGY
 GLOBAL| FFT library                                                       FFTW3
 GLOBAL| Diagonalization library                                       ScaLAPACK
 GLOBAL| DGEMM library                                                      BLAS
 GLOBAL| Orthonormality check for eigenvectors                          DISABLED
 GLOBAL| Matrix multiplication library                                 ScaLAPACK
 GLOBAL| All-to-all communication in single precision                          F
 GLOBAL| FFTs using library dependent lengths                                  F
 GLOBAL| Grid backend                                                       AUTO
 GLOBAL| Global print level                                               MEDIUM
 GLOBAL| MPI I/O enabled                                                       T
 GLOBAL| Total number of message passing processes                            24
 GLOBAL| Number of threads for this process                                    4
 GLOBAL| This output is from process                                           0
 GLOBAL| OpenMP stack size per thread (OMP_STACKSIZE)                    default
 GLOBAL| CPU model name             Intel(R) Xeon(R) Platinum 8174 CPU @ 3.10GHz

 MEMORY| system memory details [Kb]
 MEMORY|                        rank 0           min           max       average
 MEMORY| MemTotal             98436660      98436660      98436660      98436660
 MEMORY| MemFree              84486820      84023596      84486820      84255208
 MEMORY| Buffers                     0             0             0             0
 MEMORY| Cached                2411260       2401040       2411260       2406150
 MEMORY| Slab                  1170700       1170700       1191776       1181238
 MEMORY| SReclaimable           254044        254044        258772        256408
 MEMORY| MemLikelyFree        87152124      86683408      87152124      86917766


 *** Fundamental physical constants (SI units) ***

 *** Literature: B. J. Mohr and B. N. Taylor,
 ***             CODATA recommended values of the fundamental physical
 ***             constants: 2006, Web Version 5.1
 ***             http://physics.nist.gov/constants

 Speed of light in vacuum [m/s]                             2.99792458000000E+08
 Magnetic constant or permeability of vacuum [N/A**2]       1.25663706143592E-06
 Electric constant or permittivity of vacuum [F/m]          8.85418781762039E-12
 Planck constant (h) [J*s]                                  6.62606896000000E-34
 Planck constant (h-bar) [J*s]                              1.05457162825177E-34
 Elementary charge [C]                                      1.60217648700000E-19
 Electron mass [kg]                                         9.10938215000000E-31
 Electron g factor [ ]                                     -2.00231930436220E+00
 Proton mass [kg]                                           1.67262163700000E-27
 Fine-structure constant                                    7.29735253760000E-03
 Rydberg constant [1/m]                                     1.09737315685270E+07
 Avogadro constant [1/mol]                                  6.02214179000000E+23
 Boltzmann constant [J/K]                                   1.38065040000000E-23
 Atomic mass unit [kg]                                      1.66053878200000E-27
 Bohr radius [m]                                            5.29177208590000E-11

 *** Conversion factors ***

 [u] -> [a.u.]                                              1.82288848426455E+03
 [Angstrom] -> [Bohr] = [a.u.]                              1.88972613288564E+00
 [a.u.] = [Bohr] -> [Angstrom]                              5.29177208590000E-01
 [a.u.] -> [s]                                              2.41888432650478E-17
 [a.u.] -> [fs]                                             2.41888432650478E-02
 [a.u.] -> [J]                                              4.35974393937059E-18
 [a.u.] -> [N]                                              8.23872205491840E-08
 [a.u.] -> [K]                                              3.15774647902944E+05
 [a.u.] -> [kJ/mol]                                         2.62549961709828E+03
 [a.u.] -> [kcal/mol]                                       6.27509468713739E+02
 [a.u.] -> [Pa]                                             2.94210107994716E+13
 [a.u.] -> [bar]                                            2.94210107994716E+08
 [a.u.] -> [atm]                                            2.90362800883016E+08
 [a.u.] -> [eV]                                             2.72113838565563E+01
 [a.u.] -> [Hz]                                             6.57968392072181E+15
 [a.u.] -> [1/cm] (wave numbers)                            2.19474631370540E+05
 [a.u./Bohr**2] -> [1/cm]                                   5.14048714338585E+03
 

 CELL_TOP| Volume [angstrom^3]:                                     27000.000000
 CELL_TOP| Vector a [angstrom    30.000     0.000     0.000   |a| =    30.000000
 CELL_TOP| Vector b [angstrom     0.000    30.000     0.000   |b| =    30.000000
 CELL_TOP| Vector c [angstrom     0.000     0.000    30.000   |c| =    30.000000
 CELL_TOP| Angle (b,c), alpha [degree]:                                90.000000
 CELL_TOP| Angle (a,c), beta  [degree]:                                90.000000
 CELL_TOP| Angle (a,b), gamma [degree]:                                90.000000
 CELL_TOP| Numerically orthorhombic:                                         YES
 CELL_TOP| Periodicity                                                      NONE

 GENERATE|  Preliminary Number of Bonds generated:                             0
 GENERATE|  Achieved consistency in connectivity generation.

 CELL| Volume [angstrom^3]:                                         27000.000000
 CELL| Vector a [angstrom]:      30.000     0.000     0.000   |a| =    30.000000
 CELL| Vector b [angstrom]:       0.000    30.000     0.000   |b| =    30.000000
 CELL| Vector c [angstrom]:       0.000     0.000    30.000   |c| =    30.000000
 CELL| Angle (b,c), alpha [degree]:                                    90.000000
 CELL| Angle (a,c), beta  [degree]:                                    90.000000
 CELL| Angle (a,b), gamma [degree]:                                    90.000000
 CELL| Numerically orthorhombic:                                             YES
 CELL| Periodicity                                                          NONE

 CELL_REF| Volume [angstrom^3]:                                     27000.000000
 CELL_REF| Vector a [angstrom    30.000     0.000     0.000   |a| =    30.000000
 CELL_REF| Vector b [angstrom     0.000    30.000     0.000   |b| =    30.000000
 CELL_REF| Vector c [angstrom     0.000     0.000    30.000   |c| =    30.000000
 CELL_REF| Angle (b,c), alpha [degree]:                                90.000000
 CELL_REF| Angle (a,c), beta  [degree]:                                90.000000
 CELL_REF| Angle (a,b), gamma [degree]:                                90.000000
 CELL_REF| Numerically orthorhombic:                                         YES
 CELL_REF| Periodicity                                                      NONE

 *******************************************************************************
 *******************************************************************************
 **                                                                           **
 **     #####                         ##              ##                      **
 **    ##   ##            ##          ##              ##                      **
 **   ##     ##                       ##            ######                    **
 **   ##     ##  ##   ##  ##   #####  ##  ##   ####   ##    #####    #####    **
 **   ##     ##  ##   ##  ##  ##      ## ##   ##      ##   ##   ##  ##   ##   **
 **   ##  ## ##  ##   ##  ##  ##      ####     ###    ##   ######   ######    **
 **    ##  ###   ##   ##  ##  ##      ## ##      ##   ##   ##       ##        **
 **     #######   #####   ##   #####  ##  ##  ####    ##    #####   ##        **
 **           ##                                                    ##        **
 **                                                                           **
 **                                                ... make the atoms dance   **
 **                                                                           **
 **            Copyright (C) by CP2K developers group (2000-2025)             **
 **                      J. Chem. Phys. 152, 194103 (2020)                    **
 **                                                                           **
 *******************************************************************************

 DFT| Spin restricted Kohn-Sham (RKS) calculation                            RKS
 DFT| Multiplicity                                                             1
 DFT| Number of spin states                                                    1
 DFT| Charge                                                                   0
 DFT| Self-interaction correction (SIC)                                       NO
 DFT| Cutoffs: density                                              1.000000E-10
 DFT|          gradient                                             1.000000E-10
 DFT|          tau                                                  1.000000E-10
 DFT|          cutoff_smoothing_range                               0.000000E+00
 DFT| XC density smoothing                                                  NONE
 DFT| XC derivatives                                                          PW

 FUNCTIONAL| PBE:
 FUNCTIONAL| J.P.Perdew, K.Burke, M.Ernzerhof, Phys. Rev. Letter, vol. 77, n 18,
 FUNCTIONAL|  pp. 3865-3868, (1996)sx=0.750sc=1.000{spin unpolarized}           


 QS| Method:                                                                GAPW
 QS| Density plane wave grid type                        NON-SPHERICAL FULLSPACE
 QS| Number of grid levels:                                                    4
 QS| Density cutoff [a.u.]:                                                250.0
 QS| Multi grid cutoff [a.u.]: 1) grid level                               250.0
 QS|                           2) grid level                                83.3
 QS|                           3) grid level                                27.8
 QS|                           4) grid level                                 9.3
 QS| Grid level progression factor:                                          3.0
 QS| Relative density cutoff [a.u.]:                                        50.0
 QS| Interaction thresholds: eps_pgf_orb:                                1.0E-12
 QS|                         eps_filter_matrix:                          0.0E+00
 QS|                         eps_core_charge:                            1.0E-14
 QS|                         eps_rho_gspace:                             1.0E-12
 QS|                         eps_rho_rspace:                             1.0E-12
 QS|                         eps_gvg_rspace:                             1.0E-06
 QS|                         eps_ppl:                                    1.0E-02
 QS|                         eps_ppnl:                                   1.0E-08
 QS| GAPW|      One center basis from orbital basis primitives
 QS| GAPW|                   eps_fit:                                    1.0E-04
 QS| GAPW|                   eps_iso:                                    1.0E-12
 QS| GAPW|                   eps_svd:                                    1.0E-08
 QS| GAPW|                   eps_cpc:                                    1.0E-12
 QS| GAPW|   atom-r-grid: quadrature:                                     GC_LOG
 QS| GAPW|      atom-s-grid:  max l :                                          6
 QS| GAPW|      max_l_rho0 :                                                   2


 ATOMIC KIND INFORMATION

  1. Atomic kind: B                                     Number of atoms:       1

     Orbital Basis Set                                               aug-cc-pVTZ

       Number of orbital shell sets:                                           8
       Number of orbital shells:                                              14
       Number of primitive Cartesian functions:                               22
       Number of Cartesian basis functions:                                   55
       Number of spherical basis functions:                                   46
       Norm type:                                                              2

       Normalised Cartesian orbitals:

                        Set   Shell   Orbital            Exponent    Coefficient

                          1       1    1px               0.020960       0.011368
                          1       1    1py               0.020960       0.011368
                          1       1    1pz               0.020960       0.011368

                          2       1    1s                0.029140       0.050266

                          3       1    1dx2              0.060400       0.012112
                          3       1    1dxy              0.060400       0.020979
                          3       1    1dxz              0.060400       0.020979
                          3       1    1dy2              0.060400       0.012112
                          3       1    1dyz              0.060400       0.020979
                          3       1    1dz2              0.060400       0.012112

                          4       1    1px              12.050000       0.000000
                                                         2.613000       0.000000
                                                         0.747500       0.000000
                                                         0.238500       0.237575
                                                         0.076980       0.000000
                          4       1    1py              12.050000       0.000000
                                                         2.613000       0.000000
                                                         0.747500       0.000000
                                                         0.238500       0.237575
                                                         0.076980       0.000000
                          4       1    1pz              12.050000       0.000000
                                                         2.613000       0.000000
                                                         0.747500       0.000000
                                                         0.238500       0.237575
                                                         0.076980       0.000000

                          4       2    2px              12.050000       0.419799
                                                         2.613000       0.378346
                                                         0.747500       0.274704
                                                         0.238500       0.119802
                                                         0.076980       0.020442
                          4       2    2py              12.050000       0.419799
                                                         2.613000       0.378346
                                                         0.747500       0.274704
                                                         0.238500       0.119802
                                                         0.076980       0.020442
                          4       2    2pz              12.050000       0.419799
                                                         2.613000       0.378346
                                                         0.747500       0.274704
                                                         0.238500       0.119802
                                                         0.076980       0.020442

                          4       3    3px              12.050000       0.000000
                                                         2.613000       0.000000
                                                         0.747500       0.000000
                                                         0.238500       0.000000
                                                         0.076980       0.057798
                          4       3    3py              12.050000       0.000000
                                                         2.613000       0.000000
                                                         0.747500       0.000000
                                                         0.238500       0.000000
                                                         0.076980       0.057798
                          4       3    3pz              12.050000       0.000000
                                                         2.613000       0.000000
                                                         0.747500       0.000000
                                                         0.238500       0.000000
                                                         0.076980       0.057798

                          5       1    1s             5473.000000       0.251693
                                                       820.900000       0.469014
                                                       186.800000       0.790419
                                                        52.830000       1.179298
                                                        17.080000       1.428459
                                                         5.999000       1.188585
                                                         2.208000       0.441446
                                                         0.587900       0.017636
                                                         0.241500      -0.002344
                                                         0.086100       0.000268

                          5       2    2s             5473.000000       0.000000
                                                       820.900000       0.000000
                                                       186.800000       0.000000
                                                        52.830000       0.000000
                                                        17.080000       0.000000
                                                         5.999000       0.000000
                                                         2.208000       0.000000
                                                         0.587900       0.478506
                                                         0.241500       0.000000
                                                         0.086100       0.000000

                          5       3    3s             5473.000000      -0.050792
                                                       820.900000      -0.094874
                                                       186.800000      -0.161476
                                                        52.830000      -0.246960
                                                        17.080000      -0.321186
                                                         5.999000      -0.325113
                                                         2.208000      -0.214071
                                                         0.587900       0.057472
                                                         0.241500       0.146329
                                                         0.086100       0.046561

                          5       4    4s             5473.000000       0.000000
                                                       820.900000       0.000000
                                                       186.800000       0.000000
                                                        52.830000       0.000000
                                                        17.080000       0.000000
                                                         5.999000       0.000000
                                                         2.208000       0.000000
                                                         0.587900       0.000000
                                                         0.241500       0.000000
                                                         0.086100       0.113282

                          6       1    1fx3              0.163000       0.024853
                          6       1    1fx2y             0.163000       0.055573
                          6       1    1fx2z             0.163000       0.055573
                          6       1    1fxy2             0.163000       0.055573
                          6       1    1fxyz             0.163000       0.096255
                          6       1    1fxz2             0.163000       0.055573
                          6       1    1fy3              0.163000       0.024853
                          6       1    1fy2z             0.163000       0.055573
                          6       1    1fyz2             0.163000       0.055573
                          6       1    1fz3              0.163000       0.024853

                          7       1    1dx2              0.661000       0.797558
                                                         0.199000       0.000000
                          7       1    1dxy              0.661000       1.381410
                                                         0.199000       0.000000
                          7       1    1dxz              0.661000       1.381410
                                                         0.199000       0.000000
                          7       1    1dy2              0.661000       0.797558
                                                         0.199000       0.000000
                          7       1    1dyz              0.661000       1.381410
                                                         0.199000       0.000000
                          7       1    1dz2              0.661000       0.797558
                                                         0.199000       0.000000

                          7       2    2dx2              0.661000       0.000000
                                                         0.199000       0.097589
                          7       2    2dxy              0.661000       0.000000
                                                         0.199000       0.169030
                          7       2    2dxz              0.661000       0.000000
                                                         0.199000       0.169030
                          7       2    2dy2              0.661000       0.000000
                                                         0.199000       0.097589
                          7       2    2dyz              0.661000       0.000000
                                                         0.199000       0.169030
                          7       2    2dz2              0.661000       0.000000
                                                         0.199000       0.097589

                          8       1    1fx3              0.490000       0.295730
                          8       1    1fx2y             0.490000       0.661273
                          8       1    1fx2z             0.490000       0.661273
                          8       1    1fxy2             0.490000       0.661273
                          8       1    1fxyz             0.490000       1.145358
                          8       1    1fxz2             0.490000       0.661273
                          8       1    1fy3              0.490000       0.295730
                          8       1    1fy2z             0.490000       0.661273
                          8       1    1fyz2             0.490000       0.661273
                          8       1    1fz3              0.490000       0.295730

     RI Auxiliary Basis Set                                    aug-cc-pVTZ-OPTRI

       Number of orbital shell sets:                                          18
       Number of orbital shells:                                              18
       Number of primitive Cartesian functions:                               18
       Number of Cartesian basis functions:                                  103
       Number of spherical basis functions:                                   78
       Norm type:                                                              2

       Normalised Cartesian orbitals:

                        Set   Shell   Orbital            Exponent    Coefficient

                          1       1    1px               0.040116       0.025591
                          1       1    1py               0.040116       0.025591
                          1       1    1pz               0.040116       0.025591

                          2       1    1s                0.046164       0.070980

                          3       1    1dx2              0.090864       0.024751
                          3       1    1dxy              0.090864       0.042870
                          3       1    1dxz              0.090864       0.042870
                          3       1    1dy2              0.090864       0.024751
                          3       1    1dyz              0.090864       0.042870
                          3       1    1dz2              0.090864       0.024751

                          4       1    1px               0.115608       0.096089
                          4       1    1py               0.115608       0.096089
                          4       1    1pz               0.115608       0.096089

                          5       1    1s                0.244788       0.248029

                          6       1    1fx3              0.270071       0.077407
                          6       1    1fx2y             0.270071       0.173087
                          6       1    1fx2z             0.270071       0.173087
                          6       1    1fxy2             0.270071       0.173087
                          6       1    1fxyz             0.270071       0.299796
                          6       1    1fxz2             0.270071       0.173087
                          6       1    1fy3              0.270071       0.077407
                          6       1    1fy2z             0.270071       0.173087
                          6       1    1fyz2             0.270071       0.173087
                          6       1    1fz3              0.270071       0.077407

                          7       1    1gx4              0.375331       0.075175
                          7       1    1gx3y             0.375331       0.198895
                          7       1    1gx3z             0.375331       0.198895
                          7       1    1gx2y2            0.375331       0.256773
                          7       1    1gx2yz            0.375331       0.444743
                          7       1    1gx2z2            0.375331       0.256773
                          7       1    1gxy3             0.375331       0.198895
                          7       1    1gxy2z            0.375331       0.444743
                          7       1    1gxyz2            0.375331       0.444743
                          7       1    1gxz3             0.375331       0.198895
                          7       1    1gy4              0.375331       0.075175
                          7       1    1gy3z             0.375331       0.198895
                          7       1    1gy2z2            0.375331       0.256773
                          7       1    1gyz3             0.375331       0.198895
                          7       1    1gz4              0.375331       0.075175

                          8       1    1dx2              0.393664       0.322017
                          8       1    1dxy              0.393664       0.557751
                          8       1    1dxz              0.393664       0.557751
                          8       1    1dy2              0.393664       0.322017
                          8       1    1dyz              0.393664       0.557751
                          8       1    1dz2              0.393664       0.322017

                          9       1    1px               0.419074       0.480622
                          9       1    1py               0.419074       0.480622
                          9       1    1pz               0.419074       0.480622

                         10       1    1px               0.752855       0.999607
                         10       1    1py               0.752855       0.999607
                         10       1    1pz               0.752855       0.999607

                         11       1    1fx3              0.878780       1.100740
                         11       1    1fx2y             0.878780       2.461330
                         11       1    1fx2z             0.878780       2.461330
                         11       1    1fxy2             0.878780       2.461330
                         11       1    1fxyz             0.878780       4.263148
                         11       1    1fxz2             0.878780       2.461330
                         11       1    1fy3              0.878780       1.100740
                         11       1    1fy2z             0.878780       2.461330
                         11       1    1fyz2             0.878780       2.461330
                         11       1    1fz3              0.878780       1.100740

                         12       1    1s                0.880079       0.647592

                         13       1    1gx4              1.022372       1.182660
                         13       1    1gx3y             1.022372       3.129025
                         13       1    1gx3z             1.022372       3.129025
                         13       1    1gx2y2            1.022372       4.039554
                         13       1    1gx2yz            1.022372       6.996713
                         13       1    1gx2z2            1.022372       4.039554
                         13       1    1gxy3             1.022372       3.129025
                         13       1    1gxy2z            1.022372       6.996713
                         13       1    1gxyz2            1.022372       6.996713
                         13       1    1gxz3             1.022372       3.129025
                         13       1    1gy4              1.022372       1.182660
                         13       1    1gy3z             1.022372       3.129025
                         13       1    1gy2z2            1.022372       4.039554
                         13       1    1gyz3             1.022372       3.129025
                         13       1    1gz4              1.022372       1.182660

                         14       1    1dx2              1.397498       2.956474
                         14       1    1dxy              1.397498       5.120763
                         14       1    1dxz              1.397498       5.120763
                         14       1    1dy2              1.397498       2.956474
                         14       1    1dyz              1.397498       5.120763
                         14       1    1dz2              1.397498       2.956474

                         15       1    1fx3              1.884032       6.122137
                         15       1    1fx2y             1.884032      13.689515
                         15       1    1fx2z             1.884032      13.689515
                         15       1    1fxy2             1.884032      13.689515
                         15       1    1fxyz             1.884032      23.710936
                         15       1    1fxz2             1.884032      13.689515
                         15       1    1fy3              1.884032       6.122137
                         15       1    1fy2z             1.884032      13.689515
                         15       1    1fyz2             1.884032      13.689515
                         15       1    1fz3              1.884032       6.122137

                         16       1    1s                2.267148       1.316801

                         17       1    1px               2.484142       4.445398
                         17       1    1py               2.484142       4.445398
                         17       1    1pz               2.484142       4.445398

                         18       1    1dx2              4.847375      26.064298
                         18       1    1dxy              4.847375      45.144689
                         18       1    1dxz              4.847375      45.144689
                         18       1    1dy2              4.847375      26.064298
                         18       1    1dyz              4.847375      45.144689
                         18       1    1dz2              4.847375      26.064298

       Atomic covalent radius [Angstrom]:                                  0.820

       Atomic van der Waals radius [Angstrom]:                             1.920

     The atoms of this atomic kind are PAW atoms (GAPW):
       Hard Gaussian function radius:                                      1.512
       Rho0 radius:                                                        1.512
       Maximum GTO radius used for PAW projector construction:            24.566

     GAPW Soft Basis Set                                        aug-cc-pVTZ_soft

       Number of orbital shell sets:                                           8
       Number of orbital shells:                                              14
       Number of primitive Cartesian functions:                               15
       Number of Cartesian basis functions:                                   55
       Number of spherical basis functions:                                   46
       Norm type:                                                              2

       Normalised Cartesian orbitals:

                        Set   Shell   Orbital            Exponent    Coefficient

                          1       1    1px               0.020960       0.011368
                          1       1    1py               0.020960       0.011368
                          1       1    1pz               0.020960       0.011368

                          2       1    1s                0.029140       0.050266

                          3       1    1dx2              0.060400       0.012112
                          3       1    1dxy              0.060400       0.020979
                          3       1    1dxz              0.060400       0.020979
                          3       1    1dy2              0.060400       0.012112
                          3       1    1dyz              0.060400       0.020979
                          3       1    1dz2              0.060400       0.012112

                          4       1    1px               2.613000       0.000000
                                                         0.747500       0.000000
                                                         0.238500       0.237575
                                                         0.076980       0.000000
                          4       1    1py               2.613000       0.000000
                                                         0.747500       0.000000
                                                         0.238500       0.237575
                                                         0.076980       0.000000
                          4       1    1pz               2.613000       0.000000
                                                         0.747500       0.000000
                                                         0.238500       0.237575
                                                         0.076980       0.000000

                          4       2    2px               2.613000       0.378346
                                                         0.747500       0.274704
                                                         0.238500       0.119802
                                                         0.076980       0.020442
                          4       2    2py               2.613000       0.378346
                                                         0.747500       0.274704
                                                         0.238500       0.119802
                                                         0.076980       0.020442
                          4       2    2pz               2.613000       0.378346
                                                         0.747500       0.274704
                                                         0.238500       0.119802
                                                         0.076980       0.020442

                          4       3    3px               2.613000       0.000000
                                                         0.747500       0.000000
                                                         0.238500       0.000000
                                                         0.076980       0.057798
                          4       3    3py               2.613000       0.000000
                                                         0.747500       0.000000
                                                         0.238500       0.000000
                                                         0.076980       0.057798
                          4       3    3pz               2.613000       0.000000
                                                         0.747500       0.000000
                                                         0.238500       0.000000
                                                         0.076980       0.057798

                          5       1    1s                2.208000       0.441446
                                                         0.587900       0.017636
                                                         0.241500      -0.002344
                                                         0.086100       0.000268

                          5       2    2s                2.208000       0.000000
                                                         0.587900       0.478506
                                                         0.241500       0.000000
                                                         0.086100       0.000000

                          5       3    3s                2.208000      -0.214071
                                                         0.587900       0.057472
                                                         0.241500       0.146329
                                                         0.086100       0.046561

                          5       4    4s                2.208000       0.000000
                                                         0.587900       0.000000
                                                         0.241500       0.000000
                                                         0.086100       0.113282

                          6       1    1fx3              0.163000       0.024853
                          6       1    1fx2y             0.163000       0.055573
                          6       1    1fx2z             0.163000       0.055573
                          6       1    1fxy2             0.163000       0.055573
                          6       1    1fxyz             0.163000       0.096255
                          6       1    1fxz2             0.163000       0.055573
                          6       1    1fy3              0.163000       0.024853
                          6       1    1fy2z             0.163000       0.055573
                          6       1    1fyz2             0.163000       0.055573
                          6       1    1fz3              0.163000       0.024853

                          7       1    1dx2              0.661000       0.797558
                                                         0.199000       0.000000
                          7       1    1dxy              0.661000       1.381410
                                                         0.199000       0.000000
                          7       1    1dxz              0.661000       1.381410
                                                         0.199000       0.000000
                          7       1    1dy2              0.661000       0.797558
                                                         0.199000       0.000000
                          7       1    1dyz              0.661000       1.381410
                                                         0.199000       0.000000
                          7       1    1dz2              0.661000       0.797558
                                                         0.199000       0.000000

                          7       2    2dx2              0.661000       0.000000
                                                         0.199000       0.097589
                          7       2    2dxy              0.661000       0.000000
                                                         0.199000       0.169030
                          7       2    2dxz              0.661000       0.000000
                                                         0.199000       0.169030
                          7       2    2dy2              0.661000       0.000000
                                                         0.199000       0.097589
                          7       2    2dyz              0.661000       0.000000
                                                         0.199000       0.169030
                          7       2    2dz2              0.661000       0.000000
                                                         0.199000       0.097589

                          8       1    1fx3              0.490000       0.295730
                          8       1    1fx2y             0.490000       0.661273
                          8       1    1fx2z             0.490000       0.661273
                          8       1    1fxy2             0.490000       0.661273
                          8       1    1fxyz             0.490000       1.145358
                          8       1    1fxz2             0.490000       0.661273
                          8       1    1fy3              0.490000       0.295730
                          8       1    1fy2z             0.490000       0.661273
                          8       1    1fyz2             0.490000       0.661273
                          8       1    1fz3              0.490000       0.295730

     AE Potential information for                                            ALL

       Description:                                       All-electron potential
                                          Krack, Parrinello, PCCP 2, 2105 (2000)

       Gaussian exponent of the core charge distribution:               2.655410
       Electronic configuration (s p d ...):                           4   1   0

  2. Atomic kind: H                                     Number of atoms:       1

     Orbital Basis Set                                               aug-cc-pVTZ

       Number of orbital shell sets:                                           6
       Number of orbital shells:                                               9
       Number of primitive Cartesian functions:                               11
       Number of Cartesian basis functions:                                   25
       Number of spherical basis functions:                                   23
       Norm type:                                                              2

       Normalised Cartesian orbitals:

                        Set   Shell   Orbital            Exponent    Coefficient

                          1       1    1s                0.025260       0.045158

                          2       1    1px               0.102000       0.082166
                          2       1    1py               0.102000       0.082166
                          2       1    1pz               0.102000       0.082166

                          3       1    1s               33.870000       0.000000
                                                         5.095000       0.000000
                                                         1.159000       0.000000
                                                         0.325800       0.307343
                                                         0.102700       0.000000

                          3       2    2s               33.870000       0.060718
                                                         5.095000       0.109507
                                                         1.159000       0.161468
                                                         0.325800       0.154871
                                                         0.102700       0.049575

                          3       3    3s               33.870000       0.000000
                                                         5.095000       0.000000
                                                         1.159000       0.000000
                                                         0.325800       0.000000
                                                         0.102700       0.129297

                          4       1    1dx2              0.247000       0.142439
                          4       1    1dxy              0.247000       0.246712
                          4       1    1dxz              0.247000       0.246712
                          4       1    1dy2              0.247000       0.142439
                          4       1    1dyz              0.247000       0.246712
                          4       1    1dz2              0.247000       0.142439

                          5       1    1px               1.407000       2.184277
                                                         0.388000       0.000000
                          5       1    1py               1.407000       2.184277
                                                         0.388000       0.000000
                          5       1    1pz               1.407000       2.184277
                                                         0.388000       0.000000

                          5       2    2px               1.407000       0.000000
                                                         0.388000       0.436495
                          5       2    2py               1.407000       0.000000
                                                         0.388000       0.436495
                          5       2    2pz               1.407000       0.000000
                                                         0.388000       0.436495

                          6       1    1dx2              1.057000       1.813597
                          6       1    1dxy              1.057000       3.141241
                          6       1    1dxz              1.057000       3.141241
                          6       1    1dy2              1.057000       1.813597
                          6       1    1dyz              1.057000       3.141241
                          6       1    1dz2              1.057000       1.813597

     RI Auxiliary Basis Set                                    aug-cc-pVTZ-OPTRI

       Number of orbital shell sets:                                           9
       Number of orbital shells:                                               9
       Number of primitive Cartesian functions:                                9
       Number of Cartesian basis functions:                                   34
       Number of spherical basis functions:                                   29
       Norm type:                                                              2

       Normalised Cartesian orbitals:

                        Set   Shell   Orbital            Exponent    Coefficient

                          1       1    1s                0.207674       0.219254

                          2       1    1s                0.488825       0.416654

                          3       1    1dx2              0.617513       0.708011
                          3       1    1dxy              0.617513       1.226311
                          3       1    1dxz              0.617513       1.226311
                          3       1    1dy2              0.617513       0.708011
                          3       1    1dyz              0.617513       1.226311
                          3       1    1dz2              0.617513       0.708011

                          4       1    1px               0.702626       0.916949
                          4       1    1py               0.702626       0.916949
                          4       1    1pz               0.702626       0.916949

                          5       1    1s                1.747055       1.083029

                          6       1    1dx2              1.784914       4.536696
                          6       1    1dxy              1.784914       7.857789
                          6       1    1dxz              1.784914       7.857789
                          6       1    1dy2              1.784914       4.536696
                          6       1    1dyz              1.784914       7.857789
                          6       1    1dz2              1.784914       4.536696

                          7       1    1fx3              1.918725       6.378714
                          7       1    1fx2y             1.918725      14.263237
                          7       1    1fx2z             1.918725      14.263237
                          7       1    1fxy2             1.918725      14.263237
                          7       1    1fxyz             1.918725      24.704651
                          7       1    1fxz2             1.918725      14.263237
                          7       1    1fy3              1.918725       6.378714
                          7       1    1fy2z             1.918725      14.263237
                          7       1    1fyz2             1.918725      14.263237
                          7       1    1fz3              1.918725       6.378714

                          8       1    1px               2.114191       3.633878
                          8       1    1py               2.114191       3.633878
                          8       1    1pz               2.114191       3.633878

                          9       1    1px               4.837096      10.225180
                          9       1    1py               4.837096      10.225180
                          9       1    1pz               4.837096      10.225180

       Atomic covalent radius [Angstrom]:                                  0.320

       Atomic van der Waals radius [Angstrom]:                             1.090

     The atoms of this atomic kind are PAW atoms (GAPW):
       Hard Gaussian function radius:                                      1.200
       Rho0 radius:                                                        1.200
       Maximum GTO radius used for PAW projector construction:            24.566

     GAPW Soft Basis Set                                        aug-cc-pVTZ_soft

       Number of orbital shell sets:                                           6
       Number of orbital shells:                                               9
       Number of primitive Cartesian functions:                               10
       Number of Cartesian basis functions:                                   25
       Number of spherical basis functions:                                   23
       Norm type:                                                              2

       Normalised Cartesian orbitals:

                        Set   Shell   Orbital            Exponent    Coefficient

                          1       1    1s                0.025260       0.045158

                          2       1    1px               0.102000       0.082166
                          2       1    1py               0.102000       0.082166
                          2       1    1pz               0.102000       0.082166

                          3       1    1s                5.095000       0.000000
                                                         1.159000       0.000000
                                                         0.325800       0.307343
                                                         0.102700       0.000000

                          3       2    2s                5.095000       0.109507
                                                         1.159000       0.161468
                                                         0.325800       0.154871
                                                         0.102700       0.049575

                          3       3    3s                5.095000       0.000000
                                                         1.159000       0.000000
                                                         0.325800       0.000000
                                                         0.102700       0.129297

                          4       1    1dx2              0.247000       0.142439
                          4       1    1dxy              0.247000       0.246712
                          4       1    1dxz              0.247000       0.246712
                          4       1    1dy2              0.247000       0.142439
                          4       1    1dyz              0.247000       0.246712
                          4       1    1dz2              0.247000       0.142439

                          5       1    1px               1.407000       2.184277
                                                         0.388000       0.000000
                          5       1    1py               1.407000       2.184277
                                                         0.388000       0.000000
                          5       1    1pz               1.407000       2.184277
                                                         0.388000       0.000000

                          5       2    2px               1.407000       0.000000
                                                         0.388000       0.436495
                          5       2    2py               1.407000       0.000000
                                                         0.388000       0.436495
                          5       2    2pz               1.407000       0.000000
                                                         0.388000       0.436495

                          6       1    1dx2              1.057000       1.813597
                          6       1    1dxy              1.057000       3.141241
                          6       1    1dxz              1.057000       3.141241
                          6       1    1dy2              1.057000       1.813597
                          6       1    1dyz              1.057000       3.141241
                          6       1    1dz2              1.057000       1.813597

     AE Potential information for                                            ALL

       Description:                                       All-electron potential
                                          Krack, Parrinello, PCCP 2, 2105 (2000)

       Gaussian exponent of the core charge distribution:              12.500000
       Electronic configuration (s p d ...):                           1   0   0


 MOLECULE KIND INFORMATION


 All atoms are their own molecule, skipping detailed information


 TOTAL NUMBERS AND MAXIMUM NUMBERS

  Total number of            - Atomic kinds:                                   2
                             - Atoms:                                          2
                             - Shell sets:                                    14
                             - Shells:                                        23
                             - Primitive Cartesian functions:                 33
                             - Cartesian basis functions:                     80
                             - Spherical basis functions:                     69

  Maximum angular momentum of the orbital basis functions:                     3


 MODULE QUICKSTEP: ATOMIC COORDINATES IN ANGSTROM

   Atom Kind Element         X             Y             Z       Z(eff)     Mass
      1    1 B     5     15.616628     15.000000     15.000000   5.0000  10.8110
      2    2 H     1     14.383372     15.000000     15.000000   1.0000   1.0079



 SCF PARAMETERS         Density guess:                                    ATOMIC
                        --------------------------------------------------------
                        max_scf:                                             500
                        max_scf_history:                                       0
                        max_diis:                                              4
                        --------------------------------------------------------
                        eps_scf:                                        1.00E-06
                        eps_scf_history:                                0.00E+00
                        eps_diis:                                       1.00E-01
                        eps_eigval:                                     1.00E-05
                        --------------------------------------------------------
                        level_shift [a.u.]:                             0.000000
                        added MOs                                        66    0
                        --------------------------------------------------------
                        Mixing method:                            BROYDEN_MIXING
                                                charge density mixing in g-space
                        --------------------------------------------------------
                        No outer SCF

 PW_GRID| Information for grid number                                          1
 PW_GRID| Grid distributed over                                    24 processors
 PW_GRID| Real space group dimensions                                    24    1
 PW_GRID| the grid is blocked:                                                NO
 PW_GRID| Cutoff [a.u.]                                                    250.0
 PW_GRID| spherical cutoff:                                                   NO
 PW_GRID|   Bounds   1           -202     202                Points:         405
 PW_GRID|   Bounds   2           -202     202                Points:         405
 PW_GRID|   Bounds   3           -202     202                Points:         405
 PW_GRID| Volume element (a.u.^3)  0.2743E-02     Volume (a.u.^3)    182205.0337
 PW_GRID| Grid span                                                    FULLSPACE
 PW_GRID|   Distribution                         Average         Max         Min
 PW_GRID|   G-Vectors                          2767921.9     2768175     2767770
 PW_GRID|   G-Rays                                6834.4        6835        6834
 PW_GRID|   Real Space Points                  2767921.9     2788425     2624400

 PW_GRID| Information for grid number                                          2
 PW_GRID| Number of the reference grid                                         1
 PW_GRID| Grid distributed over                                    24 processors
 PW_GRID| Real space group dimensions                                    24    1
 PW_GRID| the grid is blocked:                                                NO
 PW_GRID| Cutoff [a.u.]                                                     83.3
 PW_GRID| spherical cutoff:                                                   NO
 PW_GRID|   Bounds   1           -120     119                Points:         240
 PW_GRID|   Bounds   2           -120     119                Points:         240
 PW_GRID|   Bounds   3           -120     119                Points:         240
 PW_GRID| Volume element (a.u.^3)  0.1318E-01     Volume (a.u.^3)    182205.0337
 PW_GRID| Grid span                                                    FULLSPACE
 PW_GRID|   Distribution                         Average         Max         Min
 PW_GRID|   G-Vectors                           576000.0      576240      575760
 PW_GRID|   G-Rays                                2400.0        2401        2399
 PW_GRID|   Real Space Points                   576000.0      576000      576000

 PW_GRID| Information for grid number                                          3
 PW_GRID| Number of the reference grid                                         1
 PW_GRID| Grid distributed over                                    24 processors
 PW_GRID| Real space group dimensions                                    24    1
 PW_GRID| the grid is blocked:                                                NO
 PW_GRID| Cutoff [a.u.]                                                     27.8
 PW_GRID| spherical cutoff:                                                   NO
 PW_GRID|   Bounds   1            -67      67                Points:         135
 PW_GRID|   Bounds   2            -67      67                Points:         135
 PW_GRID|   Bounds   3            -67      67                Points:         135
 PW_GRID| Volume element (a.u.^3)  0.7406E-01     Volume (a.u.^3)    182205.0337
 PW_GRID| Grid span                                                    FULLSPACE
 PW_GRID|   Distribution                         Average         Max         Min
 PW_GRID|   G-Vectors                           102515.6      102735      102330
 PW_GRID|   G-Rays                                 759.4         761         758
 PW_GRID|   Real Space Points                   102515.6      109350       91125

 PW_GRID| Information for grid number                                          4
 PW_GRID| Number of the reference grid                                         1
 PW_GRID| Grid distributed over                                    24 processors
 PW_GRID| Real space group dimensions                                    24    1
 PW_GRID| the grid is blocked:                                                NO
 PW_GRID| Cutoff [a.u.]                                                      9.3
 PW_GRID| spherical cutoff:                                                   NO
 PW_GRID|   Bounds   1            -40      39                Points:          80
 PW_GRID|   Bounds   2            -40      39                Points:          80
 PW_GRID|   Bounds   3            -40      39                Points:          80
 PW_GRID| Volume element (a.u.^3)  0.3559         Volume (a.u.^3)    182205.0337
 PW_GRID| Grid span                                                    FULLSPACE
 PW_GRID|   Distribution                         Average         Max         Min
 PW_GRID|   G-Vectors                            21333.3       21360       21280
 PW_GRID|   G-Rays                                 266.7         267         266
 PW_GRID|   Real Space Points                    21333.3       25600       19200

 POISSON| Solver                                                         WAVELET
 POISSON| Wavelet| Scaling function                                           40
 POISSON| Periodicity                                                       NONE

 RS_GRID| Information for grid number                                          1
 RS_GRID|   Bounds   1           -202     202                Points:         405
 RS_GRID|   Bounds   2           -202     202                Points:         405
 RS_GRID|   Bounds   3           -202     202                Points:         405
 RS_GRID| Real space distribution over                                  4 groups
 RS_GRID| Real space distribution along direction                              2
 RS_GRID| Border size                                                         35
 RS_GRID| Real space distribution over                                  6 groups
 RS_GRID| Real space distribution along direction                              3
 RS_GRID| Border size                                                         35
 RS_GRID|   Distribution                         Average         Max         Min
 RS_GRID|   Planes                                 171.2         172         171
 RS_GRID|   Distribution                         Average         Max         Min
 RS_GRID|   Planes                                 137.5         138         137

 RS_GRID| Information for grid number                                          2
 RS_GRID|   Bounds   1           -120     119                Points:         240
 RS_GRID|   Bounds   2           -120     119                Points:         240
 RS_GRID|   Bounds   3           -120     119                Points:         240
 RS_GRID| Real space distribution over                                  4 groups
 RS_GRID| Real space distribution along direction                              2
 RS_GRID| Border size                                                         37
 RS_GRID| Real space distribution over                                  6 groups
 RS_GRID| Real space distribution along direction                              3
 RS_GRID| Border size                                                         37
 RS_GRID|   Distribution                         Average         Max         Min
 RS_GRID|   Planes                                 134.0         134         134
 RS_GRID|   Distribution                         Average         Max         Min
 RS_GRID|   Planes                                 114.0         114         114

 RS_GRID| Information for grid number                                          3
 RS_GRID|   Bounds   1            -67      67                Points:         135
 RS_GRID|   Bounds   2            -67      67                Points:         135
 RS_GRID|   Bounds   3            -67      67                Points:         135
 RS_GRID| Real space fully replicated
 RS_GRID| Group size                                                           1

 RS_GRID| Information for grid number                                          4
 RS_GRID|   Bounds   1            -40      39                Points:          80
 RS_GRID|   Bounds   2            -40      39                Points:          80
 RS_GRID|   Bounds   3            -40      39                Points:          80
 RS_GRID| Real space fully replicated
 RS_GRID| Group size                                                           1

  HFX_INFO| Replica ID:                                                        1
  HFX_INFO| FRACTION:                                               0.2500000000
  HFX_INFO| Interaction Potential:                                       COULOMB
  HFX_INFO| EPS_SCHWARZ:                                                 1.0E-10
  HFX_INFO| EPS_SCHWARZ_FORCES                                           1.0E-08
  HFX_INFO| EPS_STORAGE_SCALING:                                         1.0E+00
  HFX_INFO| NBINS:                                                            64
  HFX_INFO| BLOCK_SIZE:                                                        1
  HFX_INFO| Number of periodic shells considered:                           NONE
  HFX_INFO| Number of periodic cells considered:                            NONE

 
 RI-RPA| using GPW style
 

 OVERLAP MATRIX CONDITION NUMBER
 1-Norm Condition Number (Estimate)
   CN : |A|*|A^-1|:  9.036E+000 *  4.259E+003   = 3.849E+004  Log(1-CN):  4.5853
 1-Norm and 2-Norm Condition Numbers using Diagonalization
   CN : |A|*|A^-1|:  9.036E+000 *  4.259E+003   = 3.849E+004  Log(1-CN):  4.5853
   CN : max/min ev:  5.905E+000 /  4.693E-004   = 1.258E+004  Log(2-CN):  4.0998

 Number of electrons:                                                          6
 Number of occupied orbitals:                                                  3
 Number of molecular orbitals:                                                69

 Number of orbital functions:                                                 69
 Number of independent orbital functions:                                     69

 Extrapolation method: initial_guess

 Atomic guess: The first density matrix is obtained in terms of atomic orbitals
               and electronic configurations assigned to each atomic kind

 Guess for atomic kind: B

 Electronic structure
    Total number of core electrons                                          0.00
    Total number of valence electrons                                       5.00
    Total number of electrons                                               5.00
    Multiplicity                                                   not specified
    S      2.00  2.00
    P      1.00


 *******************************************************************************
                  Iteration          Convergence                     Energy [au]
 *******************************************************************************
                          1        0.414231E-01                 -24.338802418326
                          2        0.208226E-01                 -24.341013833998
                          3        0.144589E-02                 -24.342166580794
                          4        0.570422E-04                 -24.342171174007
                          5        0.523618E-06                 -24.342171180924

 Energy components [Hartree]           Total Energy ::          -24.342171180924
                                        Band Energy ::          -13.953270957225
                                     Kinetic Energy ::           24.150669622431
                                   Potential Energy ::          -48.492840803354
                                      Virial (-V/T) ::            2.007929451294
                                        Core Energy ::          -32.320703471960
                                          XC Energy ::           -3.524376815134
                                     Coulomb Energy ::           11.502909106171

 Orbital energies  State     L     Occupation   Energy[a.u.]          Energy[eV]

                       1     0          2.000      -6.563491         -178.601683
                       2     0          2.000      -0.344915           -9.385607

                       1     1          1.000      -0.136459           -3.713232


 Total Electron Density at R=0:                                        67.848647

 Guess for atomic kind: H

 Electronic structure
    Total number of core electrons                                          0.00
    Total number of valence electrons                                       1.00
    Total number of electrons                                               1.00
    Multiplicity                                                   not specified
    S      1.00


 *******************************************************************************
                  Iteration          Convergence                     Energy [au]
 *******************************************************************************
                          1        0.899984E-02                  -0.445273676984
                          2        0.831993E-03                  -0.445370735705
                          3        0.104223E-03                  -0.445373223017
                          4        0.123824E-06                  -0.445373248884

 Energy components [Hartree]           Total Energy ::           -0.445373248884
                                        Band Energy ::           -0.233121027105
                                     Kinetic Energy ::            0.424055116706
                                   Potential Energy ::           -0.869428365590
                                      Virial (-V/T) ::            2.050272078646
                                        Core Energy ::           -0.495782636313
                                          XC Energy ::           -0.232278681357
                                     Coulomb Energy ::            0.282688068786

 Orbital energies  State     L     Occupation   Energy[a.u.]          Energy[eV]

                       1     0          1.000      -0.233121           -6.343546


 Total Electron Density at R=0:                                         0.244200
 Re-scaling the density matrix to get the right number of electrons
                  # Electrons              Trace(P)               Scaling factor
                            6                 6.000                        1.000


 SCF WAVEFUNCTION OPTIMIZATION

  Step     Update method      Time    Convergence         Total energy    Change
  ------------------------------------------------------------------------------

  HFX_MEM_INFO| Est. max. program size before HFX [MiB]:                    2157
  HFX_MEM_INFO| Number of cart. primitive ERI's calculated:             36549225
  HFX_MEM_INFO| Number of sph. ERI's calculated:                         9794435
  HFX_MEM_INFO| Number of sph. ERI's stored in-core:                     9794435
  HFX_MEM_INFO| Number of sph. ERI's stored on disk:                           0
  HFX_MEM_INFO| Number of sph. ERI's calculated on the fly:                    0
  HFX_MEM_INFO| Total memory consumption ERI's RAM [MiB]:                     33
  HFX_MEM_INFO| Whereof max-vals [MiB]:                                        1
  HFX_MEM_INFO| Total compression factor ERI's RAM:                         2.27
  HFX_MEM_INFO| Total memory consumption ERI's disk [MiB]:                     0
  HFX_MEM_INFO| Total compression factor ERI's disk:                        0.00
  HFX_MEM_INFO| Size of density/Fock matrix [MiB]:                             0
  HFX_MEM_INFO| Size of buffers [MiB]:                                         0
  HFX_MEM_INFO| Est. max. program size after HFX  [MiB]:                    2673

     1 NoMix/Diag. 0.10E+00    9.5     1.19048527       -25.1687119943 -2.52E+01
     2 Broy./Diag. 0.10E+00    4.8     0.12935020       -25.0106572458  1.58E-01
     3 Broy./Diag. 0.10E+00    4.9     0.18742087       -24.7782551090  2.32E-01
     4 Broy./Diag. 0.10E+00    4.9     0.35496643       -25.0309536205 -2.53E-01
     5 Broy./Diag. 0.10E+00    5.0     0.07667752       -25.0995413636 -6.86E-02
     6 Broy./Diag. 0.10E+00    4.9     0.01174244       -25.1053227358 -5.78E-03
     7 Broy./Diag. 0.10E+00    5.0     0.08092268       -25.1604760498 -5.52E-02
     8 Broy./Diag. 0.10E+00    5.2     0.02907919       -25.2047896352 -4.43E-02
     9 Broy./Diag. 0.10E+00    5.3     0.01405353       -25.2231244471 -1.83E-02
    10 Broy./Diag. 0.10E+00    5.4     0.02836393       -25.2410184094 -1.79E-02
    11 Broy./Diag. 0.10E+00    5.3     0.00833879       -25.2502439181 -9.23E-03
    12 Broy./Diag. 0.10E+00    5.3     0.00562269       -25.2497758963  4.68E-04
    13 Broy./Diag. 0.10E+00    5.3     0.01000363       -25.2441868326  5.59E-03
    14 Broy./Diag. 0.10E+00    5.3     0.00198783       -25.2476640467 -3.48E-03
    15 Broy./Diag. 0.10E+00    5.3     0.01044912       -25.2499818688 -2.32E-03
    16 Broy./Diag. 0.10E+00    5.3     0.01121341       -25.2482847575  1.70E-03
    17 Broy./Diag. 0.10E+00    5.3     0.00281878       -25.2488945977 -6.10E-04
    18 Broy./Diag. 0.10E+00    5.4     0.00423923       -25.2494909607 -5.96E-04
    19 Broy./Diag. 0.10E+00    5.3     0.01310298       -25.2482152228  1.28E-03
    20 Broy./Diag. 0.10E+00    5.3     0.00244533       -25.2487419384 -5.27E-04
    21 Broy./Diag. 0.10E+00    5.3     0.00394990       -25.2484843691  2.58E-04
    22 Broy./Diag. 0.10E+00    5.4     0.00569056       -25.2482316992  2.53E-04
    23 Broy./Diag. 0.10E+00    5.4     0.00112416       -25.2485492782 -3.18E-04
    24 Broy./Diag. 0.10E+00    5.3     0.00156885       -25.2484686115  8.07E-05
    25 Broy./Diag. 0.10E+00    5.4     0.00092848       -25.2482414099  2.27E-04
    26 Broy./Diag. 0.10E+00    5.4     0.00067017       -25.2481616052  7.98E-05
    27 Broy./Diag. 0.10E+00    5.3     0.00095074       -25.2479730610  1.89E-04
    28 Broy./Diag. 0.10E+00    5.5     0.00021301       -25.2478743247  9.87E-05
    29 Broy./Diag. 0.10E+00    5.3     0.00074218       -25.2477537354  1.21E-04
    30 Broy./Diag. 0.10E+00    5.4     0.00055233       -25.2477419712  1.18E-05
    31 Broy./Diag. 0.10E+00    5.3     0.00181494       -25.2477068573  3.51E-05
    32 Broy./Diag. 0.10E+00    5.3     0.00028211       -25.2476423386  6.45E-05
[...]
 -------------------------------------------------------------------------------
 
 CP2K version 2025.1 (Development Version), the CP2K developers group (2025).
 CP2K is freely available from https://www.cp2k.org/ .
 
 T. D. Kuehne, M. Iannuzzi, M. Del Ben, V. V. Rybkin, P. Seewald, F. Stein, T. 
 Laino, R. Z. Khaliullin, O. Schuett, F. Schiffmann, D. Golze, J. Wilhelm, S. 
 Chulkov, M. H. Bani-Hashemian, V. Weber, U. Borstnik, M. Taillefumier, A. S. 
 Jakobovits, A. Lazzaro, H. Pabst, T. Mueller, R. Schade, M. Guidon, S. 
 Andermatt, N. Holmberg, G. K. Schenter, A. Hehn, A. Bussy, F. Belleflamme, G. 
 Tabacchi, A. Gloess, M. Lass, I. Bethune, C. J. Mundy, C. Plessl, M. Watkins, 
 J. VandeVondele, M. Krack, J. Hutter.
 J. Chem. Phys. 152, 194103 (2020).
 CP2K: An electronic structure and molecular dynamics software package - 
 Quickstep: Efficient and accurate electronic structure calculations.
 https://doi.org/10.1063/5.0007045

 J. Wilhelm, D. Golze, L. Talirz, J. Hutter, C. A. Pignedoli.
 J. Phys. Chem. Lett. 9, 306-312 (2018).
 Toward GW calculations on thousands of atoms.
 https://doi.org/10.1021/acs.jpclett.7b02740

 J. Wilhelm, J. Hutter.
 Phys. Rev. B 95, 235123 (2017).
 Periodic GW calculations in the Gaussian and plane-waves scheme.
 https://doi.org/10.1103/PhysRevB.95.235123

 O. Schuett, P. Messmer, J. Hutter, J. VandeVondele.
 Electronic Structure Calculations on Graphics Processing Units, 173-190 (2016).
 GPU-Accelerated Sparse Matrix-Matrix Multiplication for Linear Scaling Density 
 Functional Theory.
 https://doi.org/10.1002/9781118670712.ch8

 J. Wilhelm, M. Del Ben, J. Hutter.
 J. Chem. Theory Comput. 12, 3623-3635 (2016).
 GW in the Gaussian and plane waves scheme with application to linear acenes.
 https://doi.org/10.1021/acs.jctc.6b00380

 M. Del Ben, O. Schuett, T. Wentz, P. Messmer, J. Hutter, J. VandeVondele.
 Comput. Phys. Commun. 187, 120-129 (2015).
 Enabling simulation at the fifth rung of DFT: Large scale RPA calculations with 
 excellent time to solution.
 https://doi.org/10.1016/j.cpc.2014.10.021

 J. Hutter, M. Iannuzzi, F. Schiffmann, J. VandeVondele.
 WIREs Comput Mol Sci. 4, 15-25 (2014).
 CP2K: atomistic simulations of condensed matter systems.
 https://doi.org/10.1002/wcms.1159

 U. Borstnik, J. VandeVondele, V. Weber, J. Hutter.
 Parallel Comput. 40, 47-58 (2014).
 Sparse matrix multiplication: The distributed block-compressed sparse row 
 library.
 https://doi.org/10.1016/j.parco.2014.03.012

 M. Del Ben, J. Hutter, J. VandeVondele.
 J. Chem. Theory Comput. 9, 2654-2671 (2013).
 Electron Correlation in the Condensed Phase from a Resolution of Identity 
 Approach Based on the Gaussian and Plane Waves Scheme.
 https://doi.org/10.1021/ct4002202

 M. Del Ben, J. Hutter, J. VandeVondele.
 J. Chem. Theory Comput. 8, 4177-4188 (2012).
 Second-Order Moller-Plesset Perturbation Theory in the Condensed Phase: An 
 Efficient and Massively Parallel Gaussian and Plane Waves Approach.
 https://doi.org/10.1021/ct300531w

 M. Guidon, J. Hutter, J. VandeVondele.
 J. Chem. Theory Comput. 5, 3010-3021 (2009).
 Robust Periodic Hartree-Fock Exchange for Large-Scale Simulations Using 
 Gaussian Basis Sets.
 https://doi.org/10.1021/ct900494g

 M. Guidon, F. Schiffmann, J. Hutter, J. VandeVondele.
 J. Chem. Phys. 128, 214104 (2008).
 Ab initio molecular dynamics using hybrid density functionals.
 https://doi.org/10.1063/1.2931945

 L. Genovese, T. Deutsch, S. Goedecker.
 J. Chem. Phys. 127, 054704 (2007).
 Efficient and accurate three-dimensional Poisson solver for surface problems.
 https://doi.org/10.1063/1.2754685

 J. VandeVondele, J. Hutter.
 J. Chem. Phys. 127, 114105 (2007).
 Gaussian basis sets for accurate calculations on molecular systems in gas and 
 condensed phases.
 https://doi.org/10.1063/1.2770708

 L. Genovese, T. Deutsch, A. Neelov, S. Goedecker, G. Beylkin.
 J. Chem. Phys. 125, 074105 (2006).
 Efficient solution of Poisson's equation with free boundary conditions.
 https://doi.org/10.1063/1.2335442

 M. Frigo, S. G. Johnson.
 Proc. IEEE 93, 216-231 (2005).
 The design and implementation of FFTW3.
 https://doi.org/10.1109/JPROC.2004.840301

 M. Krack, M. Parrinello.
 Phys. Chem. Chem. Phys. 2, 2105-2112 (2000).
 All-electron ab-initio molecular dynamics.
 https://doi.org/10.1039/b001167n

 G. Lippert, J. Hutter, M. Parrinello.
 Theor. Chem. Acc. 103, 124-140 (1999).
 The Gaussian and augmented-plane-wave density functional method for ab initio 
 molecular dynamics simulations.
 https://doi.org/10.1007/s002140050523

 J. P. Perdew, K. Burke, M. Ernzerhof.
 Phys. Rev. Lett. 77, 3865-3868 (1996).
 Generalized gradient approximation made simple.
 https://doi.org/10.1103/PhysRevLett.77.3865


 -------------------------------------------------------------------------------
 -                                                                             -
 -                                T I M I N G                                  -
 -                                                                             -
 -------------------------------------------------------------------------------
 SUBROUTINE                       CALLS  ASD         SELF TIME        TOTAL TIME
                                MAXIMUM       AVERAGE  MAXIMUM  AVERAGE  MAXIMUM
 CP2K                                 1  1.0    0.046    0.076  352.368  352.369
 qs_energies                          1  2.0    0.001    0.001  350.402  350.608
 scf_env_do_scf                       1  3.0    0.000    0.000  345.264  345.265
 scf_env_do_scf_inner_loop           64  4.0    0.002    0.004  345.264  345.265
 qs_ks_build_kohn_sham_matrix        65  7.0    0.010    0.011  262.174  262.183
 qs_ks_update_qs_env                 64  5.0    0.000    0.000  259.735  259.742
 rebuild_ks_matrix                   64  6.0    0.000    0.000  259.729  259.737
 fft_wrap_pw1pw2                   1356  9.9    0.032    0.039  153.361  154.825
 fft_wrap_pw1pw2_250                966 11.1    6.852    7.657  148.695  150.405
 fft3d_ps                          1356 11.9   66.211   69.063  120.400  122.178
 pw_poisson_solve                    65  8.0    2.845    2.902  104.098  104.124
 qs_vxc_create                       65  8.0    0.001    0.001   92.042   92.043
 xc_vxc_pw_create                    64  9.0    1.639    1.724   92.041   92.042
 ps_wavelet_solve                    65  9.0   58.554   62.089   68.747   68.978
 xc_pw_derive                       384 11.0    0.005    0.006   66.886   68.434
 mp_alltoall_d54                     65 10.0    6.076   53.776    6.076   53.776
 xc_rho_set_and_dset_create          64 10.0    1.266    1.551   45.508   46.584
 gspace_mixing                       63  5.0    1.231    1.243   46.106   46.106
 xc_pw_divergence                    64 10.0    0.003    0.004   44.177   45.585
 mp_alltoall_z22v                  1356 13.9   33.118   43.729   33.118   43.729
 qs_rho_update_rho_low               65  5.0    0.001    0.001   39.636   39.636
 calculate_rho_elec                  65  6.0    1.270    1.281   39.587   39.587
 broyden_mixing                      63  6.0   34.605   35.079   35.205   35.271
 x_to_yz                            709 13.1   14.307   14.517   30.535   31.464
 yz_to_x                            647 12.8    6.746    8.111   23.636   30.316
 density_rs2pw                       65  7.0    0.005    0.005   29.383   29.772
 sum_up_and_integrate                65  8.0    0.001    0.001   22.908   22.940
 integrate_v_rspace                  65  9.0    0.001    0.002   22.520   22.591
 potential_pw2rs                     65 10.0    0.058    0.063   20.577   20.667
 prepare_gapw_den                    65  8.0    0.001    0.001   17.082   17.284
 put_rho0_on_grid                    65  9.0    1.273    1.286   16.319   16.521
 transfer_pw2rs                     326 10.6    0.005    0.006   12.480   12.552
 pw_scatter_p                       709 12.1   11.221   11.427   11.221   11.427
 transfer_rs2pw                     326  8.4    0.008    0.012   10.742   11.117
 pw_gather_p                        647 11.8    9.252   10.115    9.252   10.115
 mp_waitany                       10976 11.5    9.009    9.954    9.009    9.954
 xc_functional_eval                 320 10.9    0.001    0.002    8.978    9.781
 pbe_lda_eval                       320 11.9    8.977    9.781    8.977    9.781
 grid_collocate_task_list            65  7.0    8.642    9.615    8.642    9.615
 transfer_pw2rs_250                 131 10.9    3.287    3.501    9.173    9.347
 transfer_rs2pw_250                 131 10.0    3.431    3.581    7.988    8.351
 pw_derive                          579 11.3    7.681    8.065    7.681    8.065
 hfx_ks_matrix                       65  8.0    0.002    0.003    6.653    6.733
 integrate_four_center               65  9.0    1.311    2.742    6.650    6.729
 mp_sum_d                          1808  6.2    3.867    6.397    3.867    6.397
 integrate_vhg0_rspace               65  8.0    0.044    0.048    5.772    5.781
 mp_alltoall_d11v                  1232  9.5    4.062    5.015    4.062    5.015
 mp_alltoall_d45                     66 10.0    3.446    4.648    3.446    4.648
 fft_wrap_pw1pw2_90                 130 10.5    0.193    0.261    3.846    4.483
 mp_sync                            755  9.4    2.969    4.420    2.969    4.420
 pw_copy                            970 10.6    4.100    4.388    4.100    4.388
 cp2k_distribution_to_z_slices       65  9.0    2.548    2.682    3.851    4.190
 mp2_main                             1  3.0    0.000    0.000    3.834    4.040
 pw_poisson_set                      66  8.9    0.002    0.003    3.842    3.868
 pw_copy_to_array                   647 11.8    3.399    3.788    3.399    3.788
 integrate_four_center_main          65 10.0    0.108    2.094    0.171    3.479
 pw_axpy                            645  9.3    2.830    3.078    2.830    3.078
 rs_grid_zero                       327 11.1    2.847    2.933    2.847    2.933
 compute_vec_Sigma_x_minus_vxc_       1  4.0    0.000    0.000    2.449    2.449
 pw_integral_ab_c1d_c1d_gs           65  9.0    1.929    2.106    2.311    2.434
 pw_copy_from_array                 709 12.1    1.974    2.366    1.974    2.366
 rs_gather_matrices                  65 10.0    0.006    0.008    1.696    1.949
 grid_integrate_task_list            65 10.0    0.245    1.906    0.245    1.906
 transfer_pw2rs_90                   65 12.0    0.515    0.557    1.690    1.901
 calculate_vxc_atom                  65  8.0    0.028    0.274    1.887    1.887
 pw_poisson_rebuild                  65  9.0    0.000    0.000    1.814    1.842
 ps_wavelet_create                    1 10.0    0.000    0.000    1.814    1.842
 RS_z_slice_distribution              1 11.0    1.652    1.718    1.814    1.842
 calc_screening_functions             1 10.0    1.034    1.081    1.573    1.613
 mp_isend_dv                      11120 11.6    0.950    1.596    0.950    1.596
 transfer_rs2pw_90                   65  9.0    0.365    0.406    1.396    1.584
 gaVxcgb_GC                         128  9.0    0.064    1.525    0.064    1.525
 integrate_four_center_bin         4999 11.0    0.064    1.385    0.064    1.385
 pw_zero                            386 10.3    1.299    1.357    1.299    1.357
 transfer_pw2rs_30                   65 12.0    0.728    0.765    1.256    1.317
 mp_waitall_1                     12050 12.1    0.940    1.316    0.940    1.316
 mp2_gpw_main                         1  4.0    0.000    0.000    1.198    1.208
 transfer_rs2pw_30                   65  9.0    0.558    0.573    1.088    1.108
 rpa_ri_compute_en                    1  5.0    0.000    0.000    1.067    1.067
 rpa_num_int                          1  6.0    0.001    0.001    1.060    1.061
 mp_irecv_dm3                      1568 11.5    0.482    1.045    0.482    1.045
 init_scf_run                         1  3.0    0.000    0.000    1.036    1.037
 scf_env_initial_rho_setup            1  4.0    0.000    0.000    1.029    1.030
 Vh_1c_gg_integrals                  65  8.0    0.011    0.154    0.330    0.967
 mp_sum_dm                          459  7.6    0.641    0.960    0.641    0.960
 powell_optimize                 361572 11.0    0.886    0.904    0.886    0.904
 compute_GW_self_energy             100  7.0    0.001    0.001    0.880    0.898
 scale_and_distribute               130 10.0    0.833    0.882    0.833    0.882
 qs_init_subsys                       1  2.0    0.004    0.004    0.872    0.873
 qs_env_setup                         1  3.0    0.000    0.000    0.860    0.861
 qs_env_rebuild_pw_env                2  3.5    0.000    0.000    0.859    0.860
 compute_GW_self_energy_deep        100  8.0    0.670    0.688    0.841    0.860
 pw_env_rebuild                       1  5.0    0.001    0.001    0.858    0.859
 pw_grid_setup                        4  6.0    0.000    0.000    0.843    0.845
 pw_grid_setup_internal               4  7.0    0.019    0.023    0.843    0.844
 mp_isend_dm3                      1568 11.5    0.384    0.789    0.384    0.789
 create_qs_kind_set                   1  2.0    0.000    0.000    0.763    0.765
 read_qs_kind                         2  3.0    0.409    0.419    0.763    0.764
 mp_sendrecv_dv                    2990 10.0    0.688    0.733    0.688    0.733
 calculate_rho_atom                 130  9.0    0.295    0.728    0.295    0.728
 mp_sum_dv                         2506 10.7    0.606    0.706    0.606    0.706
 mp_max_i                           578  2.8    0.332    0.696    0.332    0.696
 pw_grid_sort                         4  8.0    0.472    0.476    0.669    0.674
 fft_wrap_pw1pw2_30                 130 10.5    0.032    0.034    0.642    0.667
 calc_pair_dist_radii                 1 10.0    0.181    0.186    0.528    0.539
 qs_scf_new_mos                      64  5.0    0.001    0.001    0.496    0.506
 pw_scale                           257  9.5    0.376    0.458    0.376    0.458
 transfer_pw2rs_10                   65 12.0    0.154    0.163    0.355    0.392
 mp_sum_i                            17  9.9    0.206    0.372    0.206    0.372
 mp2_main_alloc_hfx                   1  4.0    0.166    0.372    0.166    0.372
 restraint_control                    1  2.0    0.000    0.000    0.206    0.372
 parser_read_line                 88114  4.0    0.031    0.033    0.353    0.356
 mp_isendrecv_dv                   5980 12.0    0.197    0.351    0.197    0.351
 parser_read_line_low                98  5.0    0.024    0.137    0.323    0.327
 broadcast_input_information         98  6.0    0.063    0.076    0.299    0.310
 cp_fm_syevd                         70  7.0    0.000    0.001    0.306    0.307
 eigensolver_symm                    65  6.0    0.002    0.002    0.298    0.299
 mixing_init                          1  5.0    0.290    0.295    0.295    0.296
 transfer_rs2pw_10                   65  9.0    0.104    0.108    0.262    0.271
 cp_fm_redistribute_end              70  8.0    0.145    0.267    0.146    0.269
 cp_fm_syevd_base                    70  8.0    0.122    0.245    0.122    0.245
 xc_pw_smooth                        64 10.0    0.000    0.000    0.174    0.227
 parallel_gemm_fm                   348  8.5    0.000    0.001    0.221    0.226
 parallel_gemm_fm_gemm              348  9.5    0.000    0.001    0.220    0.225
 cp_fm_gemm                         348 10.5    0.220    0.225    0.220    0.225
 mp_irecv_dv                      11114 11.6    0.099    0.224    0.099    0.224
 sort_shells                          4  9.0    0.197    0.199    0.197    0.199
 scf_post_calculation_gpw             1  3.0    0.000    0.000    0.170    0.171
 write_available_results              1  4.0    0.000    0.000    0.170    0.170
 write_mo_free_results                1  5.0    0.026    0.027    0.170    0.170
 mp_bcast_i_src                     392  7.0    0.130    0.164    0.130    0.164
 fft_wrap_pw1pw2_10                 130 10.5    0.007    0.009    0.145    0.160
 calculate_dm_sparse                 64  6.0    0.000    0.000    0.147    0.151
 cp_dbcsr_plus_fm_fm_t               64  7.0    0.001    0.001    0.146    0.150
 mp_bcast_am_src                     98  7.0    0.092    0.128    0.104    0.144
 dbcsr_multiply_generic             109  8.1    0.005    0.005    0.129    0.134
 mp2_ri_gpw_compute_in                1  5.0    0.000    0.000    0.116    0.116
 mp2_ri_gpw_compute_in_loop           1  6.0    0.000    0.000    0.112    0.112
 pw_grid_assign                       4  8.0    0.104    0.107    0.107    0.111
 rpa_num_int_RPA_matrix_operati     100  7.0    0.001    0.002    0.105    0.106
 qs_energies_init_hamiltonians        1  3.0    0.000    0.000    0.096    0.096
 build_core_hamiltonian_matrix        1  4.0    0.000    0.000    0.091    0.092
 contract_B_L                         4  7.0    0.001    0.001    0.081    0.090
 overlap_condnum                      1  5.0    0.000    0.000    0.089    0.090
 mp_sum_l                           933  6.0    0.065    0.085    0.065    0.085
 vxc_of_r_new                       256  9.0    0.000    0.012    0.003    0.081
 copy_dbcsr_to_fm                    95  6.6    0.002    0.002    0.067    0.077
 calc_mat_Q                         100  8.0    0.000    0.000    0.074    0.076
 contract_S_to_Q                    100  9.0    0.000    0.000    0.074    0.075
 hirshfeld_integration                1  6.0    0.000    0.001    0.071    0.073
 calculate_hirshfeld_normalizat       1  6.0    0.000    0.002    0.071    0.073
 arnoldi_conjugate_gradient           5  6.0    0.002    0.003    0.070    0.070
 dbcsr_complete_redistribute        227  8.4    0.009    0.012    0.069    0.070
 make_m2s                           218  9.1    0.003    0.004    0.065    0.068
 integrate_four_center_load          65 10.0    0.000    0.001    0.040    0.057
 hfx_load_balance                     1 11.0    0.000    0.000    0.039    0.057
 cp_fm_to_fm_submat_general         112 10.1    0.054    0.056    0.054    0.056
 integrate_four_center_getP          65 10.0    0.003    0.004    0.050    0.056
 hfx_load_balance_range               1 12.0    0.000    0.001    0.036    0.053
 start_bse_calculation                1  7.0    0.000    0.000    0.052    0.052
 offload_free_buffer                 73  8.3    0.042    0.050    0.042    0.050
 integrate_four_center_dist_KS       65 10.0    0.003    0.005    0.048    0.049
 dbt_total                            8  8.0    0.000    0.000    0.049    0.049
 calculate_rho_atom_coeff            65  6.0    0.010    0.024    0.048    0.048
 mp_cart_create                     369 10.4    0.037    0.047    0.038    0.047
 dbt_contract                         4  9.0    0.001    0.001    0.044    0.044
 multiply_cannon                    109  9.1    0.008    0.008    0.040    0.044
 dbcsr_sym_matrix_vector_mult       302  7.0    0.005    0.005    0.031    0.042
 dbcsr_finalize                    1913 10.8    0.007    0.012    0.024    0.040
 dbcsr_desymmetrize_deep             97  7.5    0.002    0.003    0.029    0.038
 copy_fm_to_dbcsr                   132  8.1    0.001    0.001    0.037    0.038
 cp_fm_redistribute_start            70  8.0    0.029    0.030    0.037    0.038
 calculate_rho0_atom                130  9.0    0.032    0.036    0.032    0.036
 -------------------------------------------------------------------------------

 The number of warnings for this run is : 1
 
 -------------------------------------------------------------------------------
  **** **** ******  **  PROGRAM ENDED AT                 2025-03-11 07:16:09.261
 ***** ** ***  *** **   PROGRAM RAN ON                              i03r08c05s03
 **    ****   ******    PROGRAM RAN BY                                   di38fab
 ***** **    ** ** **   PROGRAM PROCESS ID                               1731152
  **** **  *******  **  PROGRAM STOPPED IN /hppfs/scratch/04/di38fab/05_MOL/W4-1
                                           1+ALK/bh/aug-cc-pVTZ
