 DBCSR| CPU Multiplication driver                                           BLAS (U)
 DBCSR| Multrec recursion limit                                              512 (U)
 DBCSR| Multiplication stack size                                           1000 (D)
 DBCSR| Maximum elements for images                                    UNLIMITED (U)
 DBCSR| Multiplicative factor virtual images                                   1 (U)
 DBCSR| Use multiplication densification                                       T (D)
 DBCSR| Multiplication size stacks                                             3 (U)
 DBCSR| Use memory pool for CPU allocation                                     F (U)
 DBCSR| Number of 3D layers                                               SINGLE (U)
 DBCSR| Use MPI memory allocation                                              F (U)
 DBCSR| Use RMA algorithm                                                      F (U)
 DBCSR| Use Communication thread                                               T (U)
 DBCSR| Communication thread load                                             75 (D)
 DBCSR| MPI: My process id                                                     0
 DBCSR| MPI: Number of processes                                              48
 DBCSR| OMP: Current number of threads                                         4
 DBCSR| OMP: Max number of threads                                             4
 DBCSR| Split modifier for TAS multiplication algorithm                  1.0E+00 (U)


  **** **** ******  **  PROGRAM STARTED AT               2025-03-18 22:42:56.333
 ***** ** ***  *** **   PROGRAM STARTED ON                          i05r10c01s02
 **    ****   ******    PROGRAM STARTED BY                               di38fab
 ***** **    ** ** **   PROGRAM PROCESS ID                               1805622
  **** **  *******  **  PROGRAM STARTED IN /hppfs/scratch/04/di38fab/05_MOL/W4-1
                                           1+ALK/c2/aug-cc-pVTZ/GW+BSE

 CP2K| version string:                 CP2K version 2025.1 (Development Version)
 CP2K| source code revision number:                                  git:d2e611a
 CP2K| cp2kflags: omp libint fftw3 libxc parallel scalapack max_contr=4         
 CP2K| is freely available from                            https://www.cp2k.org/
 CP2K| Program compiled at                       Thu 06 Mar 2025 05:09:20 PM CET
 CP2K| Program compiled on                                               login02
 CP2K| Program compiled for                                        Supermuc-foss
 CP2K| Data directory path                  /hppfs/work/pn36zo/di38fab/cp2k/data
 CP2K| Input file name                                                    GW.inp

 GLOBAL| Force Environment number                                              1
 GLOBAL| Basis set file name            /hppfs/scratch/04/di38fab/04_TMD/BASIS_A
 GLOBAL| Potential file name            /hppfs/work/pn36zo/di38fab/cp2k/data/ALL
 GLOBAL| MM Potential file name                                     MM_POTENTIAL
 GLOBAL| Coordinate file name                                      __STD_INPUT__
 GLOBAL| Method name                                                        CP2K
 GLOBAL| Project name                                                       MoS2
 GLOBAL| Run type                                                         ENERGY
 GLOBAL| FFT library                                                       FFTW3
 GLOBAL| Diagonalization library                                       ScaLAPACK
 GLOBAL| DGEMM library                                                      BLAS
 GLOBAL| Orthonormality check for eigenvectors                          DISABLED
 GLOBAL| Matrix multiplication library                                 ScaLAPACK
 GLOBAL| All-to-all communication in single precision                          F
 GLOBAL| FFTs using library dependent lengths                                  F
 GLOBAL| Grid backend                                                       AUTO
 GLOBAL| Global print level                                               MEDIUM
 GLOBAL| MPI I/O enabled                                                       T
 GLOBAL| Total number of message passing processes                            48
 GLOBAL| Number of threads for this process                                    4
 GLOBAL| This output is from process                                           0
 GLOBAL| OpenMP stack size per thread (OMP_STACKSIZE)                    default
 GLOBAL| CPU model name             Intel(R) Xeon(R) Platinum 8174 CPU @ 3.10GHz

 MEMORY| system memory details [Kb]
 MEMORY|                        rank 0           min           max       average
 MEMORY| MemTotal             98436900      98436660      98436900      98436722
 MEMORY| MemFree              84051516      83934912      84051516      83981095
 MEMORY| Buffers                     0             0             0             0
 MEMORY| Cached                2404876       2404876       2413116       2409256
 MEMORY| Slab                  1232164       1232164       1241872       1237117
 MEMORY| SReclaimable           277312        275080        279792        277606
 MEMORY| MemLikelyFree        86733704      86615984      86733704      86667957


 *** Fundamental physical constants (SI units) ***

 *** Literature: B. J. Mohr and B. N. Taylor,
 ***             CODATA recommended values of the fundamental physical
 ***             constants: 2006, Web Version 5.1
 ***             http://physics.nist.gov/constants

 Speed of light in vacuum [m/s]                             2.99792458000000E+08
 Magnetic constant or permeability of vacuum [N/A**2]       1.25663706143592E-06
 Electric constant or permittivity of vacuum [F/m]          8.85418781762039E-12
 Planck constant (h) [J*s]                                  6.62606896000000E-34
 Planck constant (h-bar) [J*s]                              1.05457162825177E-34
 Elementary charge [C]                                      1.60217648700000E-19
 Electron mass [kg]                                         9.10938215000000E-31
 Electron g factor [ ]                                     -2.00231930436220E+00
 Proton mass [kg]                                           1.67262163700000E-27
 Fine-structure constant                                    7.29735253760000E-03
 Rydberg constant [1/m]                                     1.09737315685270E+07
 Avogadro constant [1/mol]                                  6.02214179000000E+23
 Boltzmann constant [J/K]                                   1.38065040000000E-23
 Atomic mass unit [kg]                                      1.66053878200000E-27
 Bohr radius [m]                                            5.29177208590000E-11

 *** Conversion factors ***

 [u] -> [a.u.]                                              1.82288848426455E+03
 [Angstrom] -> [Bohr] = [a.u.]                              1.88972613288564E+00
 [a.u.] = [Bohr] -> [Angstrom]                              5.29177208590000E-01
 [a.u.] -> [s]                                              2.41888432650478E-17
 [a.u.] -> [fs]                                             2.41888432650478E-02
 [a.u.] -> [J]                                              4.35974393937059E-18
 [a.u.] -> [N]                                              8.23872205491840E-08
 [a.u.] -> [K]                                              3.15774647902944E+05
 [a.u.] -> [kJ/mol]                                         2.62549961709828E+03
 [a.u.] -> [kcal/mol]                                       6.27509468713739E+02
 [a.u.] -> [Pa]                                             2.94210107994716E+13
 [a.u.] -> [bar]                                            2.94210107994716E+08
 [a.u.] -> [atm]                                            2.90362800883016E+08
 [a.u.] -> [eV]                                             2.72113838565563E+01
 [a.u.] -> [Hz]                                             6.57968392072181E+15
 [a.u.] -> [1/cm] (wave numbers)                            2.19474631370540E+05
 [a.u./Bohr**2] -> [1/cm]                                   5.14048714338585E+03
 

 CELL_TOP| Volume [angstrom^3]:                                     27000.000000
 CELL_TOP| Vector a [angstrom    30.000     0.000     0.000   |a| =    30.000000
 CELL_TOP| Vector b [angstrom     0.000    30.000     0.000   |b| =    30.000000
 CELL_TOP| Vector c [angstrom     0.000     0.000    30.000   |c| =    30.000000
 CELL_TOP| Angle (b,c), alpha [degree]:                                90.000000
 CELL_TOP| Angle (a,c), beta  [degree]:                                90.000000
 CELL_TOP| Angle (a,b), gamma [degree]:                                90.000000
 CELL_TOP| Numerically orthorhombic:                                         YES
 CELL_TOP| Periodicity                                                      NONE

 GENERATE|  Preliminary Number of Bonds generated:                             0
 GENERATE|  Achieved consistency in connectivity generation.

 CELL| Volume [angstrom^3]:                                         27000.000000
 CELL| Vector a [angstrom]:      30.000     0.000     0.000   |a| =    30.000000
 CELL| Vector b [angstrom]:       0.000    30.000     0.000   |b| =    30.000000
 CELL| Vector c [angstrom]:       0.000     0.000    30.000   |c| =    30.000000
 CELL| Angle (b,c), alpha [degree]:                                    90.000000
 CELL| Angle (a,c), beta  [degree]:                                    90.000000
 CELL| Angle (a,b), gamma [degree]:                                    90.000000
 CELL| Numerically orthorhombic:                                             YES
 CELL| Periodicity                                                          NONE

 CELL_REF| Volume [angstrom^3]:                                     27000.000000
 CELL_REF| Vector a [angstrom    30.000     0.000     0.000   |a| =    30.000000
 CELL_REF| Vector b [angstrom     0.000    30.000     0.000   |b| =    30.000000
 CELL_REF| Vector c [angstrom     0.000     0.000    30.000   |c| =    30.000000
 CELL_REF| Angle (b,c), alpha [degree]:                                90.000000
 CELL_REF| Angle (a,c), beta  [degree]:                                90.000000
 CELL_REF| Angle (a,b), gamma [degree]:                                90.000000
 CELL_REF| Numerically orthorhombic:                                         YES
 CELL_REF| Periodicity                                                      NONE

 *******************************************************************************
 *******************************************************************************
 **                                                                           **
 **     #####                         ##              ##                      **
 **    ##   ##            ##          ##              ##                      **
 **   ##     ##                       ##            ######                    **
 **   ##     ##  ##   ##  ##   #####  ##  ##   ####   ##    #####    #####    **
 **   ##     ##  ##   ##  ##  ##      ## ##   ##      ##   ##   ##  ##   ##   **
 **   ##  ## ##  ##   ##  ##  ##      ####     ###    ##   ######   ######    **
 **    ##  ###   ##   ##  ##  ##      ## ##      ##   ##   ##       ##        **
 **     #######   #####   ##   #####  ##  ##  ####    ##    #####   ##        **
 **           ##                                                    ##        **
 **                                                                           **
 **                                                ... make the atoms dance   **
 **                                                                           **
 **            Copyright (C) by CP2K developers group (2000-2025)             **
 **                      J. Chem. Phys. 152, 194103 (2020)                    **
 **                                                                           **
 *******************************************************************************

 DFT| Spin restricted Kohn-Sham (RKS) calculation                            RKS
 DFT| Multiplicity                                                             1
 DFT| Number of spin states                                                    1
 DFT| Charge                                                                   0
 DFT| Self-interaction correction (SIC)                                       NO
 DFT| Cutoffs: density                                              1.000000E-10
 DFT|          gradient                                             1.000000E-10
 DFT|          tau                                                  1.000000E-10
 DFT|          cutoff_smoothing_range                               0.000000E+00
 DFT| XC density smoothing                                                  NONE
 DFT| XC derivatives                                                          PW

 FUNCTIONAL| PBE:
 FUNCTIONAL| J.P.Perdew, K.Burke, M.Ernzerhof, Phys. Rev. Letter, vol. 77, n 18,
 FUNCTIONAL|  pp. 3865-3868, (1996)sx=0.750sc=1.000{spin unpolarized}           


 QS| Method:                                                                GAPW
 QS| Density plane wave grid type                        NON-SPHERICAL FULLSPACE
 QS| Number of grid levels:                                                    4
 QS| Density cutoff [a.u.]:                                                250.0
 QS| Multi grid cutoff [a.u.]: 1) grid level                               250.0
 QS|                           2) grid level                                83.3
 QS|                           3) grid level                                27.8
 QS|                           4) grid level                                 9.3
 QS| Grid level progression factor:                                          3.0
 QS| Relative density cutoff [a.u.]:                                        50.0
 QS| Interaction thresholds: eps_pgf_orb:                                1.0E-12
 QS|                         eps_filter_matrix:                          0.0E+00
 QS|                         eps_core_charge:                            1.0E-14
 QS|                         eps_rho_gspace:                             1.0E-12
 QS|                         eps_rho_rspace:                             1.0E-12
 QS|                         eps_gvg_rspace:                             1.0E-06
 QS|                         eps_ppl:                                    1.0E-02
 QS|                         eps_ppnl:                                   1.0E-08
 QS| GAPW|      One center basis from orbital basis primitives
 QS| GAPW|                   eps_fit:                                    1.0E-04
 QS| GAPW|                   eps_iso:                                    1.0E-12
 QS| GAPW|                   eps_svd:                                    1.0E-08
 QS| GAPW|                   eps_cpc:                                    1.0E-12
 QS| GAPW|   atom-r-grid: quadrature:                                     GC_LOG
 QS| GAPW|      atom-s-grid:  max l :                                          6
 QS| GAPW|      max_l_rho0 :                                                   2


 ATOMIC KIND INFORMATION

  1. Atomic kind: C                                     Number of atoms:       2

     Orbital Basis Set                                               aug-cc-pVTZ

       Number of orbital shell sets:                                           8
       Number of orbital shells:                                              14
       Number of primitive Cartesian functions:                               22
       Number of Cartesian basis functions:                                   55
       Number of spherical basis functions:                                   46
       Norm type:                                                              2

       Normalised Cartesian orbitals:

                        Set   Shell   Orbital            Exponent    Coefficient

                          1       1    1px               0.035690       0.022112
                          1       1    1py               0.035690       0.022112
                          1       1    1pz               0.035690       0.022112

                          2       1    1s                0.044020       0.068493

                          3       1    1dx2              0.100000       0.029269
                          3       1    1dxy              0.100000       0.050696
                          3       1    1dxz              0.100000       0.050696
                          3       1    1dy2              0.100000       0.029269
                          3       1    1dyz              0.100000       0.050696
                          3       1    1dz2              0.100000       0.029269

                          4       1    1px              18.710000       0.000000
                                                         4.133000       0.000000
                                                         1.200000       0.000000
                                                         0.382700       0.429055
                                                         0.120900       0.000000
                          4       1    1py              18.710000       0.000000
                                                         4.133000       0.000000
                                                         1.200000       0.000000
                                                         0.382700       0.429055
                                                         0.120900       0.000000
                          4       1    1pz              18.710000       0.000000
                                                         4.133000       0.000000
                                                         1.200000       0.000000
                                                         0.382700       0.429055
                                                         0.120900       0.000000

                          4       2    2px              18.710000       0.778253
                                                         4.133000       0.729662
                                                         1.200000       0.519563
                                                         0.382700       0.214960
                                                         0.120900       0.034896
                          4       2    2py              18.710000       0.778253
                                                         4.133000       0.729662
                                                         1.200000       0.519563
                                                         0.382700       0.214960
                                                         0.120900       0.034896
                          4       2    2pz              18.710000       0.778253
                                                         4.133000       0.729662
                                                         1.200000       0.519563
                                                         0.382700       0.214960
                                                         0.120900       0.034896

                          4       3    3px              18.710000       0.000000
                                                         4.133000       0.000000
                                                         1.200000       0.000000
                                                         0.382700       0.000000
                                                         0.120900       0.101619
                          4       3    3py              18.710000       0.000000
                                                         4.133000       0.000000
                                                         1.200000       0.000000
                                                         0.382700       0.000000
                                                         0.120900       0.101619
                          4       3    3pz              18.710000       0.000000
                                                         4.133000       0.000000
                                                         1.200000       0.000000
                                                         0.382700       0.000000
                                                         0.120900       0.101619

                          5       1    1s             8236.000000       0.327184
                                                      1235.000000       0.609945
                                                       280.800000       1.030914
                                                        79.270000       1.549802
                                                        25.590000       1.904111
                                                         8.997000       1.608326
                                                         3.319000       0.606601
                                                         0.905900       0.026060
                                                         0.364300      -0.003002
                                                         0.128500       0.000365

                          5       2    2s             8236.000000       0.000000
                                                      1235.000000       0.000000
                                                       280.800000       0.000000
                                                        79.270000       0.000000
                                                        25.590000       0.000000
                                                         8.997000       0.000000
                                                         3.319000       0.000000
                                                         0.905900       0.661790
                                                         0.364300       0.000000
                                                         0.128500       0.000000

                          5       3    3s             8236.000000      -0.069627
                                                      1235.000000      -0.130363
                                                       280.800000      -0.221954
                                                        79.270000      -0.343330
                                                        25.590000      -0.452153
                                                         8.997000      -0.469816
                                                         3.319000      -0.298547
                                                         0.905900       0.092903
                                                         0.364300       0.200079
                                                         0.128500       0.060480

                          5       4    4s             8236.000000       0.000000
                                                      1235.000000       0.000000
                                                       280.800000       0.000000
                                                        79.270000       0.000000
                                                        25.590000       0.000000
                                                         8.997000       0.000000
                                                         3.319000       0.000000
                                                         0.905900       0.000000
                                                         0.364300       0.000000
                                                         0.128500       0.152963

                          6       1    1fx3              0.268000       0.076078
                          6       1    1fx2y             0.268000       0.170115
                          6       1    1fx2z             0.268000       0.170115
                          6       1    1fxy2             0.268000       0.170115
                          6       1    1fxyz             0.268000       0.294648
                          6       1    1fxz2             0.268000       0.170115
                          6       1    1fy3              0.268000       0.076078
                          6       1    1fy2z             0.268000       0.170115
                          6       1    1fyz2             0.268000       0.170115
                          6       1    1fz3              0.268000       0.076078

                          7       1    1dx2              1.097000       1.935401
                                                         0.318000       0.000000
                          7       1    1dxy              1.097000       3.352214
                                                         0.318000       0.000000
                          7       1    1dxz              1.097000       3.352214
                                                         0.318000       0.000000
                          7       1    1dy2              1.097000       1.935401
                                                         0.318000       0.000000
                          7       1    1dyz              1.097000       3.352214
                                                         0.318000       0.000000
                          7       1    1dz2              1.097000       1.935401
                                                         0.318000       0.000000

                          7       2    2dx2              1.097000       0.000000
                                                         0.318000       0.221644
                          7       2    2dxy              1.097000       0.000000
                                                         0.318000       0.383899
                          7       2    2dxz              1.097000       0.000000
                                                         0.318000       0.383899
                          7       2    2dy2              1.097000       0.000000
                                                         0.318000       0.221644
                          7       2    2dyz              1.097000       0.000000
                                                         0.318000       0.383899
                          7       2    2dz2              1.097000       0.000000
                                                         0.318000       0.221644

                          8       1    1fx3              0.761000       0.796288
                          8       1    1fx2y             0.761000       1.780553
                          8       1    1fx2z             0.761000       1.780553
                          8       1    1fxy2             0.761000       1.780553
                          8       1    1fxyz             0.761000       3.084008
                          8       1    1fxz2             0.761000       1.780553
                          8       1    1fy3              0.761000       0.796288
                          8       1    1fy2z             0.761000       1.780553
                          8       1    1fyz2             0.761000       1.780553
                          8       1    1fz3              0.761000       0.796288

     RI Auxiliary Basis Set                                    aug-cc-pVTZ-OPTRI

       Number of orbital shell sets:                                          18
       Number of orbital shells:                                              18
       Number of primitive Cartesian functions:                               18
       Number of Cartesian basis functions:                                  103
       Number of spherical basis functions:                                   78
       Norm type:                                                              2

       Normalised Cartesian orbitals:

                        Set   Shell   Orbital            Exponent    Coefficient

                          1       1    1px               0.053629       0.036787
                          1       1    1py               0.053629       0.036787
                          1       1    1pz               0.053629       0.036787

                          2       1    1s                0.071296       0.098335

                          3       1    1dx2              0.149738       0.059325
                          3       1    1dxy              0.149738       0.102755
                          3       1    1dxz              0.149738       0.102755
                          3       1    1dy2              0.149738       0.059325
                          3       1    1dyz              0.149738       0.102755
                          3       1    1dz2              0.149738       0.059325

                          4       1    1px               0.180551       0.167761
                          4       1    1py               0.180551       0.167761
                          4       1    1pz               0.180551       0.167761

                          5       1    1s                0.347160       0.322335

                          6       1    1dx2              0.499205       0.487975
                          6       1    1dxy              0.499205       0.845198
                          6       1    1dxz              0.499205       0.845198
                          6       1    1dy2              0.499205       0.487975
                          6       1    1dyz              0.499205       0.845198
                          6       1    1dz2              0.499205       0.487975

                          7       1    1fx3              0.506969       0.319273
                          7       1    1fx2y             0.506969       0.713917
                          7       1    1fx2z             0.506969       0.713917
                          7       1    1fxy2             0.506969       0.713917
                          7       1    1fxyz             0.506969       1.236540
                          7       1    1fxz2             0.506969       0.713917
                          7       1    1fy3              0.506969       0.319273
                          7       1    1fy2z             0.506969       0.713917
                          7       1    1fyz2             0.506969       0.713917
                          7       1    1fz3              0.506969       0.319273

                          8       1    1px               0.571981       0.709034
                          8       1    1py               0.571981       0.709034
                          8       1    1pz               0.571981       0.709034

                          9       1    1gx4              0.583231       0.252637
                          9       1    1gx3y             0.583231       0.668415
                          9       1    1gx3z             0.583231       0.668415
                          9       1    1gx2y2            0.583231       0.862920
                          9       1    1gx2yz            0.583231       1.494621
                          9       1    1gx2z2            0.583231       0.862920
                          9       1    1gxy3             0.583231       0.668415
                          9       1    1gxy2z            0.583231       1.494621
                          9       1    1gxyz2            0.583231       1.494621
                          9       1    1gxz3             0.583231       0.668415
                          9       1    1gy4              0.583231       0.252637
                          9       1    1gy3z             0.583231       0.668415
                          9       1    1gy2z2            0.583231       0.862920
                          9       1    1gyz3             0.583231       0.668415
                          9       1    1gz4              0.583231       0.252637

                         10       1    1px               1.079380       1.568224
                         10       1    1py               1.079380       1.568224
                         10       1    1pz               1.079380       1.568224

                         11       1    1s                1.350899       0.893053

                         12       1    1fx3              1.360408       2.942457
                         12       1    1fx2y             1.360408       6.579533
                         12       1    1fx2z             1.360408       6.579533
                         12       1    1fxy2             1.360408       6.579533
                         12       1    1fxyz             1.360408      11.396086
                         12       1    1fxz2             1.360408       6.579533
                         12       1    1fy3              1.360408       2.942457
                         12       1    1fy2z             1.360408       6.579533
                         12       1    1fyz2             1.360408       6.579533
                         12       1    1fz3              1.360408       2.942457

                         13       1    1gx4              1.603084       4.074414
                         13       1    1gx3y             1.603084      10.779887
                         13       1    1gx3z             1.603084      10.779887
                         13       1    1gx2y2            1.603084      13.916774
                         13       1    1gx2yz            1.603084      24.104560
                         13       1    1gx2z2            1.603084      13.916774
                         13       1    1gxy3             1.603084      10.779887
                         13       1    1gxy2z            1.603084      24.104560
                         13       1    1gxyz2            1.603084      24.104560
                         13       1    1gxz3             1.603084      10.779887
                         13       1    1gy4              1.603084       4.074414
                         13       1    1gy3z             1.603084      10.779887
                         13       1    1gy2z2            1.603084      13.916774
                         13       1    1gyz3             1.603084      10.779887
                         13       1    1gz4              1.603084       4.074414

                         14       1    1dx2              2.042078       5.741641
                         14       1    1dxy              2.042078       9.944814
                         14       1    1dxz              2.042078       9.944814
                         14       1    1dy2              2.042078       5.741641
                         14       1    1dyz              2.042078       9.944814
                         14       1    1dz2              2.042078       5.741641

                         15       1    1px               3.363437       6.492608
                         15       1    1py               3.363437       6.492608
                         15       1    1pz               3.363437       6.492608

                         16       1    1fx3              3.489720      24.503790
                         16       1    1fx2y             3.489720      54.792140
                         16       1    1fx2z             3.489720      54.792140
                         16       1    1fxy2             3.489720      54.792140
                         16       1    1fxyz             3.489720      94.902770
                         16       1    1fxz2             3.489720      54.792140
                         16       1    1fy3              3.489720      24.503790
                         16       1    1fy2z             3.489720      54.792140
                         16       1    1fyz2             3.489720      54.792140
                         16       1    1fz3              3.489720      24.503790

                         17       1    1s                3.964205       2.002291

                         18       1    1dx2              4.948435      27.022668
                         18       1    1dxy              4.948435      46.804634
                         18       1    1dxz              4.948435      46.804634
                         18       1    1dy2              4.948435      27.022668
                         18       1    1dyz              4.948435      46.804634
                         18       1    1dz2              4.948435      27.022668

       Atomic covalent radius [Angstrom]:                                  0.770

       Atomic van der Waals radius [Angstrom]:                             1.700

     The atoms of this atomic kind are PAW atoms (GAPW):
       Hard Gaussian function radius:                                      1.512
       Rho0 radius:                                                        1.512
       Maximum GTO radius used for PAW projector construction:            24.566

     GAPW Soft Basis Set                                        aug-cc-pVTZ_soft

       Number of orbital shell sets:                                           8
       Number of orbital shells:                                              14
       Number of primitive Cartesian functions:                               15
       Number of Cartesian basis functions:                                   55
       Number of spherical basis functions:                                   46
       Norm type:                                                              2

       Normalised Cartesian orbitals:

                        Set   Shell   Orbital            Exponent    Coefficient

                          1       1    1px               0.035690       0.022112
                          1       1    1py               0.035690       0.022112
                          1       1    1pz               0.035690       0.022112

                          2       1    1s                0.044020       0.068493

                          3       1    1dx2              0.100000       0.029269
                          3       1    1dxy              0.100000       0.050696
                          3       1    1dxz              0.100000       0.050696
                          3       1    1dy2              0.100000       0.029269
                          3       1    1dyz              0.100000       0.050696
                          3       1    1dz2              0.100000       0.029269

                          4       1    1px               4.133000       0.000000
                                                         1.200000       0.000000
                                                         0.382700       0.429055
                                                         0.120900       0.000000
                          4       1    1py               4.133000       0.000000
                                                         1.200000       0.000000
                                                         0.382700       0.429055
                                                         0.120900       0.000000
                          4       1    1pz               4.133000       0.000000
                                                         1.200000       0.000000
                                                         0.382700       0.429055
                                                         0.120900       0.000000

                          4       2    2px               4.133000       0.729662
                                                         1.200000       0.519563
                                                         0.382700       0.214960
                                                         0.120900       0.034896
                          4       2    2py               4.133000       0.729662
                                                         1.200000       0.519563
                                                         0.382700       0.214960
                                                         0.120900       0.034896
                          4       2    2pz               4.133000       0.729662
                                                         1.200000       0.519563
                                                         0.382700       0.214960
                                                         0.120900       0.034896

                          4       3    3px               4.133000       0.000000
                                                         1.200000       0.000000
                                                         0.382700       0.000000
                                                         0.120900       0.101619
                          4       3    3py               4.133000       0.000000
                                                         1.200000       0.000000
                                                         0.382700       0.000000
                                                         0.120900       0.101619
                          4       3    3pz               4.133000       0.000000
                                                         1.200000       0.000000
                                                         0.382700       0.000000
                                                         0.120900       0.101619

                          5       1    1s                3.319000       0.606601
                                                         0.905900       0.026060
                                                         0.364300      -0.003002
                                                         0.128500       0.000365

                          5       2    2s                3.319000       0.000000
                                                         0.905900       0.661790
                                                         0.364300       0.000000
                                                         0.128500       0.000000

                          5       3    3s                3.319000      -0.298547
                                                         0.905900       0.092903
                                                         0.364300       0.200079
                                                         0.128500       0.060480

                          5       4    4s                3.319000       0.000000
                                                         0.905900       0.000000
                                                         0.364300       0.000000
                                                         0.128500       0.152963

                          6       1    1fx3              0.268000       0.076078
                          6       1    1fx2y             0.268000       0.170115
                          6       1    1fx2z             0.268000       0.170115
                          6       1    1fxy2             0.268000       0.170115
                          6       1    1fxyz             0.268000       0.294648
                          6       1    1fxz2             0.268000       0.170115
                          6       1    1fy3              0.268000       0.076078
                          6       1    1fy2z             0.268000       0.170115
                          6       1    1fyz2             0.268000       0.170115
                          6       1    1fz3              0.268000       0.076078

                          7       1    1dx2              1.097000       1.935401
                                                         0.318000       0.000000
                          7       1    1dxy              1.097000       3.352214
                                                         0.318000       0.000000
                          7       1    1dxz              1.097000       3.352214
                                                         0.318000       0.000000
                          7       1    1dy2              1.097000       1.935401
                                                         0.318000       0.000000
                          7       1    1dyz              1.097000       3.352214
                                                         0.318000       0.000000
                          7       1    1dz2              1.097000       1.935401
                                                         0.318000       0.000000

                          7       2    2dx2              1.097000       0.000000
                                                         0.318000       0.221644
                          7       2    2dxy              1.097000       0.000000
                                                         0.318000       0.383899
                          7       2    2dxz              1.097000       0.000000
                                                         0.318000       0.383899
                          7       2    2dy2              1.097000       0.000000
                                                         0.318000       0.221644
                          7       2    2dyz              1.097000       0.000000
                                                         0.318000       0.383899
                          7       2    2dz2              1.097000       0.000000
                                                         0.318000       0.221644

                          8       1    1fx3              0.761000       0.796288
                          8       1    1fx2y             0.761000       1.780553
                          8       1    1fx2z             0.761000       1.780553
                          8       1    1fxy2             0.761000       1.780553
                          8       1    1fxyz             0.761000       3.084008
                          8       1    1fxz2             0.761000       1.780553
                          8       1    1fy3              0.761000       0.796288
                          8       1    1fy2z             0.761000       1.780553
                          8       1    1fyz2             0.761000       1.780553
                          8       1    1fz3              0.761000       0.796288

     AE Potential information for                                            ALL

       Description:                                       All-electron potential
                                          Krack, Parrinello, PCCP 2, 2105 (2000)

       Gaussian exponent of the core charge distribution:               4.109048
       Electronic configuration (s p d ...):                           4   2   0


 MOLECULE KIND INFORMATION


 All atoms are their own molecule, skipping detailed information


 TOTAL NUMBERS AND MAXIMUM NUMBERS

  Total number of            - Atomic kinds:                                   1
                             - Atoms:                                          2
                             - Shell sets:                                    16
                             - Shells:                                        28
                             - Primitive Cartesian functions:                 44
                             - Cartesian basis functions:                    110
                             - Spherical basis functions:                     92

  Maximum angular momentum of the orbital basis functions:                     3


 MODULE QUICKSTEP: ATOMIC COORDINATES IN ANGSTROM

   Atom Kind Element         X             Y             Z       Z(eff)     Mass
      1    1 C     6     15.620000     15.000000     15.000000   6.0000  12.0107
      2    1 C     6     14.380000     15.000000     15.000000   6.0000  12.0107



 SCF PARAMETERS         Density guess:                                    ATOMIC
                        --------------------------------------------------------
                        max_scf:                                             500
                        max_scf_history:                                       0
                        max_diis:                                              4
                        --------------------------------------------------------
                        eps_scf:                                        1.00E-06
                        eps_scf_history:                                0.00E+00
                        eps_diis:                                       1.00E-01
                        eps_eigval:                                     1.00E-05
                        --------------------------------------------------------
                        level_shift [a.u.]:                             0.000000
                        added MOs                                        86    0
                        --------------------------------------------------------
                        Mixing method:                            BROYDEN_MIXING
                                                charge density mixing in g-space
                        --------------------------------------------------------
                        No outer SCF

 PW_GRID| Information for grid number                                          1
 PW_GRID| Grid distributed over                                    48 processors
 PW_GRID| Real space group dimensions                                    48    1
 PW_GRID| the grid is blocked:                                                NO
 PW_GRID| Cutoff [a.u.]                                                    250.0
 PW_GRID| spherical cutoff:                                                   NO
 PW_GRID|   Bounds   1           -202     202                Points:         405
 PW_GRID|   Bounds   2           -202     202                Points:         405
 PW_GRID|   Bounds   3           -202     202                Points:         405
 PW_GRID| Volume element (a.u.^3)  0.2743E-02     Volume (a.u.^3)    182205.0337
 PW_GRID| Grid span                                                    FULLSPACE
 PW_GRID|   Distribution                         Average         Max         Min
 PW_GRID|   G-Vectors                          1383960.9     1384290     1383885
 PW_GRID|   G-Rays                                3417.2        3418        3417
 PW_GRID|   Real Space Points                  1383960.9     1476225     1312200

 PW_GRID| Information for grid number                                          2
 PW_GRID| Number of the reference grid                                         1
 PW_GRID| Grid distributed over                                    48 processors
 PW_GRID| Real space group dimensions                                    48    1
 PW_GRID| the grid is blocked:                                                NO
 PW_GRID| Cutoff [a.u.]                                                     83.3
 PW_GRID| spherical cutoff:                                                   NO
 PW_GRID|   Bounds   1           -120     119                Points:         240
 PW_GRID|   Bounds   2           -120     119                Points:         240
 PW_GRID|   Bounds   3           -120     119                Points:         240
 PW_GRID| Volume element (a.u.^3)  0.1318E-01     Volume (a.u.^3)    182205.0337
 PW_GRID| Grid span                                                    FULLSPACE
 PW_GRID|   Distribution                         Average         Max         Min
 PW_GRID|   G-Vectors                           288000.0      288720      287520
 PW_GRID|   G-Rays                                1200.0        1203        1198
 PW_GRID|   Real Space Points                   288000.0      288000      288000

 PW_GRID| Information for grid number                                          3
 PW_GRID| Number of the reference grid                                         1
 PW_GRID| Grid distributed over                                    48 processors
 PW_GRID| Real space group dimensions                                    48    1
 PW_GRID| the grid is blocked:                                                NO
 PW_GRID| Cutoff [a.u.]                                                     27.8
 PW_GRID| spherical cutoff:                                                   NO
 PW_GRID|   Bounds   1            -67      67                Points:         135
 PW_GRID|   Bounds   2            -67      67                Points:         135
 PW_GRID|   Bounds   3            -67      67                Points:         135
 PW_GRID| Volume element (a.u.^3)  0.7406E-01     Volume (a.u.^3)    182205.0337
 PW_GRID| Grid span                                                    FULLSPACE
 PW_GRID|   Distribution                         Average         Max         Min
 PW_GRID|   G-Vectors                            51257.8       51570       51030
 PW_GRID|   G-Rays                                 379.7         382         378
 PW_GRID|   Real Space Points                    51257.8       54675       36450

 PW_GRID| Information for grid number                                          4
 PW_GRID| Number of the reference grid                                         1
 PW_GRID| Grid distributed over                                    48 processors
 PW_GRID| Real space group dimensions                                    48    1
 PW_GRID| the grid is blocked:                                                NO
 PW_GRID| Cutoff [a.u.]                                                      9.3
 PW_GRID| spherical cutoff:                                                   NO
 PW_GRID|   Bounds   1            -40      39                Points:          80
 PW_GRID|   Bounds   2            -40      39                Points:          80
 PW_GRID|   Bounds   3            -40      39                Points:          80
 PW_GRID| Volume element (a.u.^3)  0.3559         Volume (a.u.^3)    182205.0337
 PW_GRID| Grid span                                                    FULLSPACE
 PW_GRID|   Distribution                         Average         Max         Min
 PW_GRID|   G-Vectors                            10666.7       10800       10560
 PW_GRID|   G-Rays                                 133.3         135         132
 PW_GRID|   Real Space Points                    10666.7       12800        6400

 POISSON| Solver                                                         WAVELET
 POISSON| Wavelet| Scaling function                                           40
 POISSON| Periodicity                                                       NONE

 RS_GRID| Information for grid number                                          1
 RS_GRID|   Bounds   1           -202     202                Points:         405
 RS_GRID|   Bounds   2           -202     202                Points:         405
 RS_GRID|   Bounds   3           -202     202                Points:         405
 RS_GRID| Real space distribution over                                  3 groups
 RS_GRID| Real space distribution along direction                              1
 RS_GRID| Border size                                                         34
 RS_GRID| Real space distribution over                                  4 groups
 RS_GRID| Real space distribution along direction                              2
 RS_GRID| Border size                                                         34
 RS_GRID| Real space distribution over                                  4 groups
 RS_GRID| Real space distribution along direction                              3
 RS_GRID| Border size                                                         34
 RS_GRID|   Distribution                         Average         Max         Min
 RS_GRID|   Planes                                 203.0         203         203
 RS_GRID|   Distribution                         Average         Max         Min
 RS_GRID|   Planes                                 169.2         170         169
 RS_GRID|   Distribution                         Average         Max         Min
 RS_GRID|   Planes                                 169.2         170         169

 RS_GRID| Information for grid number                                          2
 RS_GRID|   Bounds   1           -120     119                Points:         240
 RS_GRID|   Bounds   2           -120     119                Points:         240
 RS_GRID|   Bounds   3           -120     119                Points:         240
 RS_GRID| Real space distribution over                                  3 groups
 RS_GRID| Real space distribution along direction                              1
 RS_GRID| Border size                                                         37
 RS_GRID| Real space distribution over                                  4 groups
 RS_GRID| Real space distribution along direction                              2
 RS_GRID| Border size                                                         37
 RS_GRID| Real space distribution over                                  4 groups
 RS_GRID| Real space distribution along direction                              3
 RS_GRID| Border size                                                         37
 RS_GRID|   Distribution                         Average         Max         Min
 RS_GRID|   Planes                                 154.0         154         154
 RS_GRID|   Distribution                         Average         Max         Min
 RS_GRID|   Planes                                 134.0         134         134
 RS_GRID|   Distribution                         Average         Max         Min
 RS_GRID|   Planes                                 134.0         134         134

 RS_GRID| Information for grid number                                          3
 RS_GRID|   Bounds   1            -67      67                Points:         135
 RS_GRID|   Bounds   2            -67      67                Points:         135
 RS_GRID|   Bounds   3            -67      67                Points:         135
 RS_GRID| Real space fully replicated
 RS_GRID| Group size                                                           1

 RS_GRID| Information for grid number                                          4
 RS_GRID|   Bounds   1            -40      39                Points:          80
 RS_GRID|   Bounds   2            -40      39                Points:          80
 RS_GRID|   Bounds   3            -40      39                Points:          80
 RS_GRID| Real space fully replicated
 RS_GRID| Group size                                                           1

  HFX_INFO| Replica ID:                                                        1
  HFX_INFO| FRACTION:                                               0.2500000000
  HFX_INFO| Interaction Potential:                                       COULOMB
  HFX_INFO| EPS_SCHWARZ:                                                 1.0E-10
  HFX_INFO| EPS_SCHWARZ_FORCES                                           1.0E-08
  HFX_INFO| EPS_STORAGE_SCALING:                                         1.0E+00
  HFX_INFO| NBINS:                                                            64
  HFX_INFO| BLOCK_SIZE:                                                        1
  HFX_INFO| Number of periodic shells considered:                           NONE
  HFX_INFO| Number of periodic cells considered:                            NONE

 
 RI-RPA| using GPW style
 

 OVERLAP MATRIX CONDITION NUMBER
 1-Norm Condition Number (Estimate)
   CN : |A|*|A^-1|:  8.480E+000 *  2.247E+004   = 1.905E+005  Log(1-CN):  5.2799
 1-Norm and 2-Norm Condition Numbers using Diagonalization
   CN : |A|*|A^-1|:  8.480E+000 *  2.247E+004   = 1.905E+005  Log(1-CN):  5.2799
   CN : max/min ev:  5.779E+000 /  7.228E-005   = 7.995E+004  Log(2-CN):  4.9028

 Number of electrons:                                                         12
 Number of occupied orbitals:                                                  6
 Number of molecular orbitals:                                                92

 Number of orbital functions:                                                 92
 Number of independent orbital functions:                                     92

 Extrapolation method: initial_guess

 Atomic guess: The first density matrix is obtained in terms of atomic orbitals
               and electronic configurations assigned to each atomic kind

 Guess for atomic kind: C

 Electronic structure
    Total number of core electrons                                          0.00
    Total number of valence electrons                                       6.00
    Total number of electrons                                               6.00
    Multiplicity                                                   not specified
    S      2.00  2.00
    P      2.00


 *******************************************************************************
                  Iteration          Convergence                     Energy [au]
 *******************************************************************************
                          1        0.107919                     -37.407214584056
                          2        0.944601E-01                 -37.411974260121
                          3        0.135126E-02                 -37.422101193838
                          4        0.254792E-03                 -37.422104372202
                          5        0.563522E-05                 -37.422104444613
                          6        0.107896E-06                 -37.422104444674

 Energy components [Hartree]           Total Energy ::          -37.422104444674
                                        Band Energy ::          -21.296184300047
                                     Kinetic Energy ::           37.178589977108
                                   Potential Energy ::          -74.600694421782
                                      Virial (-V/T) ::            2.006549857531
                                        Core Energy ::          -50.317487522836
                                          XC Energy ::           -4.728464131958
                                     Coulomb Energy ::           17.623847210120

 Orbital energies  State     L     Occupation   Energy[a.u.]          Energy[eV]

                       1     0          2.000      -9.947922         -270.696712
                       2     0          2.000      -0.501180          -13.637806

                       1     1          2.000      -0.198990           -5.414805


 Total Electron Density at R=0:                                       120.710098
 Re-scaling the density matrix to get the right number of electrons
                  # Electrons              Trace(P)               Scaling factor
                           12                12.000                        1.000


 SCF WAVEFUNCTION OPTIMIZATION

  Step     Update method      Time    Convergence         Total energy    Change
  ------------------------------------------------------------------------------

  HFX_MEM_INFO| Est. max. program size before HFX [MiB]:                    1317
  HFX_MEM_INFO| Number of cart. primitive ERI's calculated:            119260925
  HFX_MEM_INFO| Number of sph. ERI's calculated:                        26864736
  HFX_MEM_INFO| Number of sph. ERI's stored in-core:                    26864736
  HFX_MEM_INFO| Number of sph. ERI's stored on disk:                           0
  HFX_MEM_INFO| Number of sph. ERI's calculated on the fly:                    0
  HFX_MEM_INFO| Total memory consumption ERI's RAM [MiB]:                     94
  HFX_MEM_INFO| Whereof max-vals [MiB]:                                        2
  HFX_MEM_INFO| Total compression factor ERI's RAM:                         2.20
  HFX_MEM_INFO| Total memory consumption ERI's disk [MiB]:                     0
  HFX_MEM_INFO| Total compression factor ERI's disk:                        0.00
  HFX_MEM_INFO| Size of density/Fock matrix [MiB]:                             0
  HFX_MEM_INFO| Size of buffers [MiB]:                                         0
  HFX_MEM_INFO| Est. max. program size after HFX  [MiB]:                    1835

     1 NoMix/Diag. 0.10E+00    6.9     0.98497042       -76.0165802376 -7.60E+01
     2 Broy./Diag. 0.10E+00    2.6     0.05706011       -75.2724417302  7.44E-01
     3 Broy./Diag. 0.10E+00    3.0     0.04953894       -75.0166978130  2.56E-01
     4 Broy./Diag. 0.10E+00    2.7     0.14089823       -75.1514840659 -1.35E-01
     5 Broy./Diag. 0.10E+00    2.7     0.03561917       -75.6295760467 -4.78E-01
     6 Broy./Diag. 0.10E+00    2.7     0.00969417       -75.7288214699 -9.92E-02
     7 Broy./Diag. 0.10E+00    2.8     0.00913649       -75.7419327415 -1.31E-02
     8 Broy./Diag. 0.10E+00    2.8     0.00173386       -75.7478086214 -5.88E-03
     9 Broy./Diag. 0.10E+00    2.9     0.01776759       -75.7447875295  3.02E-03
    10 Broy./Diag. 0.10E+00    2.9     0.00387800       -75.7620556799 -1.73E-02
    11 Broy./Diag. 0.10E+00    3.0     0.00232470       -75.7793979347 -1.73E-02
    12 Broy./Diag. 0.10E+00    2.9     0.01346752       -75.7930848127 -1.37E-02
    13 Broy./Diag. 0.10E+00    2.9     0.00203187       -75.8009661146 -7.88E-03
    14 Broy./Diag. 0.10E+00    2.9     0.00417498       -75.7980555443  2.91E-03
    15 Broy./Diag. 0.10E+00    2.9     0.00833823       -75.7947765417  3.28E-03
    16 Broy./Diag. 0.10E+00    3.0     0.00120451       -75.7962487660 -1.47E-03
    17 Broy./Diag. 0.10E+00    2.9     0.00996455       -75.7991593162 -2.91E-03
    18 Broy./Diag. 0.10E+00    2.9     0.01203060       -75.8028420557 -3.68E-03
    19 Broy./Diag. 0.10E+00    2.9     0.00047364       -75.8045072969 -1.67E-03
    20 Broy./Diag. 0.10E+00    2.9     0.00051980       -75.8043990489  1.08E-04
    21 Broy./Diag. 0.10E+00    2.9     0.00676146       -75.8014498440  2.95E-03
    22 Broy./Diag. 0.10E+00    3.0     0.00238531       -75.7994468937  2.00E-03
    23 Broy./Diag. 0.10E+00    2.9     0.00193778       -75.7996288396 -1.82E-04
    24 Broy./Diag. 0.10E+00    3.0     0.00187597       -75.7999643755 -3.36E-04
    25 Broy./Diag. 0.10E+00    2.9     0.00179438       -75.8003098275 -3.45E-04
    26 Broy./Diag. 0.10E+00    2.9     0.00157909       -75.8002095801  1.00E-04
    27 Broy./Diag. 0.10E+00    3.0     0.00484951       -75.8001922996  1.73E-05
    28 Broy./Diag. 0.10E+00    2.9     0.00159016       -75.8004341298 -2.42E-04
    29 Broy./Diag. 0.10E+00    2.9     0.00101753       -75.8010317967 -5.98E-04
    30 Broy./Diag. 0.10E+00    2.9     0.00095665       -75.8014799122 -4.48E-04
    31 Broy./Diag. 0.10E+00    3.0     0.00101561       -75.8016221328 -1.42E-04
    32 Broy./Diag. 0.10E+00    2.9     0.00178199       -75.8019984718 -3.76E-04
    33 Broy./Diag. 0.10E+00    2.9     0.00219500       -75.8025305169 -5.32E-04
    34 Broy./Diag. 0.10E+00    2.9     0.00745610       -75.8020728372  4.58E-04
    35 Broy./Diag. 0.10E+00    2.9     0.01249250       -75.8025745408 -5.02E-04
    36 Broy./Diag. 0.10E+00    2.9     0.00114450       -75.8024997472  7.48E-05
    37 Broy./Diag. 0.10E+00    2.9     0.00549559       -75.8016277691  8.72E-04
    38 Broy./Diag. 0.10E+00    3.0     0.00190268       -75.8017275792 -9.98E-05
    39 Broy./Diag. 0.10E+00    2.9     0.00198602       -75.8013715540  3.56E-04
    40 Broy./Diag. 0.10E+00    2.9     0.00340773       -75.8013695069  2.05E-06
    41 Broy./Diag. 0.10E+00    2.9     0.01255958       -75.8023003777 -9.31E-04
    42 Broy./Diag. 0.10E+00    3.0     0.01027586       -75.8026855247 -3.85E-04
    43 Broy./Diag. 0.10E+00    2.9     0.00190575       -75.8006510319  2.03E-03
    44 Broy./Diag. 0.10E+00    2.9     0.00177504       -75.8006650779 -1.40E-05
    45 Broy./Diag. 0.10E+00    3.0     0.00248768       -75.8009817994 -3.17E-04
    46 Broy./Diag. 0.10E+00    2.9     0.00243589       -75.8004474707  5.34E-04
    47 Broy./Diag. 0.10E+00    2.9     0.00301401       -75.8007918786 -3.44E-04
    48 Broy./Diag. 0.10E+00    2.9     0.01756263       -75.8007455123  4.64E-05
    49 Broy./Diag. 0.10E+00    3.1     0.01023232       -75.8007978439 -5.23E-05
    50 Broy./Diag. 0.10E+00    2.9     0.00704282       -75.8000724226  7.25E-04
    51 Broy./Diag. 0.10E+00    3.0     0.00360272       -75.7999293563  1.43E-04
    52 Broy./Diag. 0.10E+00    2.9     0.00392503       -75.7997001734  2.29E-04
    53 Broy./Diag. 0.10E+00    2.9     0.00429509       -75.8008885359 -1.19E-03
    54 Broy./Diag. 0.10E+00    2.9     0.00491669       -75.8021295733 -1.24E-03
    55 Broy./Diag. 0.10E+00    3.0     0.00963230       -75.8034471666 -1.32E-03
    56 Broy./Diag. 0.10E+00    2.9     0.01350154       -75.8070633914 -3.62E-03
    57 Broy./Diag. 0.10E+00    2.9     0.00791674       -75.8062768484  7.87E-04
    58 Broy./Diag. 0.10E+00    2.9     0.00829782       -75.8034696619  2.81E-03
    59 Broy./Diag. 0.10E+00    2.9     0.02089407       -75.8028231565  6.47E-04
    60 Broy./Diag. 0.10E+00    2.9     0.00707587       -75.8018573178  9.66E-04
    61 Broy./Diag. 0.10E+00    2.9     0.00588269       -75.8011013698  7.56E-04
    62 Broy./Diag. 0.10E+00    3.0     0.00459891       -75.8006220864  4.79E-04
    63 Broy./Diag. 0.10E+00    2.9     0.00578386       -75.8000738407  5.48E-04
    64 Broy./Diag. 0.10E+00    2.9     0.00776504       -75.7992589717  8.15E-04
    65 Broy./Diag. 0.10E+00    2.9     0.01036179       -75.7990621913  1.97E-04
    66 Broy./Diag. 0.10E+00    3.0     0.01390995       -75.7986105642  4.52E-04
    67 Broy./Diag. 0.10E+00    2.9     0.01855660       -75.7980757925  5.35E-04
    68 Broy./Diag. 0.10E+00    2.9     0.02419796       -75.7965149721  1.56E-03
    69 Broy./Diag. 0.10E+00    2.9     0.03182562       -75.7925578641  3.96E-03
    70 Broy./Diag. 0.10E+00    2.9     0.04065751       -75.7871613718  5.40E-03
    71 Broy./Diag. 0.10E+00    2.9     0.05716261       -75.7802569321  6.90E-03
    72 Broy./Diag. 0.10E+00    2.9     0.08592219       -75.7698262728  1.04E-02
    73 Broy./Diag. 0.10E+00    2.9     0.11970627       -75.7466494024  2.32E-02
    74 Broy./Diag. 0.10E+00    2.9     0.14829015       -75.7133576827  3.33E-02
    75 Broy./Diag. 0.10E+00    2.9     0.16513017       -75.6682653535  4.51E-02
    76 Broy./Diag. 0.10E+00    2.9     0.16094761       -75.6166550683  5.16E-02
    77 Broy./Diag. 0.10E+00    2.9     0.13838298       -75.5645856083  5.21E-02
    78 Broy./Diag. 0.10E+00    2.9     0.10662635       -75.5288513594  3.57E-02
    79 Broy./Diag. 0.10E+00    3.0     0.10138934       -75.5207067655  8.14E-03
    80 Broy./Diag. 0.10E+00    2.9     0.07242673       -75.5054644432  1.52E-02
    81 Broy./Diag. 0.10E+00    2.9     0.04325038       -75.4645284165  4.09E-02
    82 Broy./Diag. 0.10E+00    2.9     0.03942252       -75.4391393450  2.54E-02
    83 Broy./Diag. 0.10E+00    2.9     0.03713481       -75.4181145470  2.10E-02
    84 Broy./Diag. 0.10E+00    2.9     0.02835554       -75.4009549909  1.72E-02
    85 Broy./Diag. 0.10E+00    2.9     0.10138013       -75.3781930542  2.28E-02
    86 Broy./Diag. 0.10E+00    3.0     0.11486566       -75.3514629875  2.67E-02
    87 Broy./Diag. 0.10E+00    2.9     0.20670106       -75.3703423911 -1.89E-02
    88 Broy./Diag. 0.10E+00    2.9     0.27803193       -75.2263319458  1.44E-01
    89 Broy./Diag. 0.10E+00    2.9     0.21458894       -75.3667994432 -1.40E-01
    90 Broy./Diag. 0.10E+00    2.9     0.08831369       -75.4219011202 -5.51E-02
    91 Broy./Diag. 0.10E+00    3.0     0.13730668       -75.3753914199  4.65E-02
    92 Broy./Diag. 0.10E+00    2.9     0.44900098       -75.3644967516  1.09E-02
    93 Broy./Diag. 0.10E+00    2.9     0.17791325       -75.4292424044 -6.47E-02
    94 Broy./Diag. 0.10E+00    2.9     0.17776064       -75.6046003596 -1.75E-01
    95 Broy./Diag. 0.10E+00    3.0     0.20356065       -75.5900474267  1.46E-02
    96 Broy./Diag. 0.10E+00    3.0     0.10148149       -75.6310444279 -4.10E-02
    97 Broy./Diag. 0.10E+00    2.9     0.12218730       -75.6580355050 -2.70E-02
    98 Broy./Diag. 0.10E+00    2.9     0.11325398       -75.6867041621 -2.87E-02
    99 Broy./Diag. 0.10E+00    2.9     0.08623638       -75.7512020759 -6.45E-02
   100 Broy./Diag. 0.10E+00    2.9     0.07928124       -75.8285461544 -7.73E-02
   101 Broy./Diag. 0.10E+00    2.9     0.07635538       -75.9795316457 -1.51E-01
   102 Broy./Diag. 0.10E+00    2.9     0.22389793       -76.0502529770 -7.07E-02
   103 Broy./Diag. 0.10E+00    3.0     0.17503600       -76.0167086929  3.35E-02
   104 Broy./Diag. 0.10E+00    2.9     0.09333552       -76.1109846020 -9.43E-02
   105 Broy./Diag. 0.10E+00    2.9     0.16016988       -75.9655249672  1.45E-01
   106 Broy./Diag. 0.10E+00    2.9     0.17329443       -75.8576776873  1.08E-01
   107 Broy./Diag. 0.10E+00    2.9     0.16519888       -75.8041443940  5.35E-02
   108 Broy./Diag. 0.10E+00    3.0     0.21767715       -75.7252499079  7.89E-02
   109 Broy./Diag. 0.10E+00    2.9     0.08942342       -75.6800120843  4.52E-02
   110 Broy./Diag. 0.10E+00    2.9     0.13071138       -75.7575195501 -7.75E-02
   111 Broy./Diag. 0.10E+00    3.0     0.05393326       -75.8402951731 -8.28E-02
   112 Broy./Diag. 0.10E+00    2.9     0.05781523       -75.7615332071  7.88E-02
   113 Broy./Diag. 0.10E+00    3.0     0.15954885       -75.7445265300  1.70E-02
   114 Broy./Diag. 0.10E+00    3.0     0.33462720       -75.7862859570 -4.18E-02
   115 Broy./Diag. 0.10E+00    2.9     0.31363874       -75.8829930253 -9.67E-02
   116 Broy./Diag. 0.10E+00    3.0     0.11949426       -75.8905541698 -7.56E-03
   117 Broy./Diag. 0.10E+00    2.9     0.03125557       -75.8740956189  1.65E-02
   118 Broy./Diag. 0.10E+00    2.9     0.02999251       -75.9047639797 -3.07E-02
   119 Broy./Diag. 0.10E+00    2.9     0.02157150       -75.8957109502  9.05E-03
   120 Broy./Diag. 0.10E+00    3.0     0.01682346       -75.8510047284  4.47E-02
   121 Broy./Diag. 0.10E+00    2.9     0.01959701       -75.8407854774  1.02E-02
   122 Broy./Diag. 0.10E+00    2.9     0.05069893       -75.8298496913  1.09E-02
   123 Broy./Diag. 0.10E+00    2.9     0.48212717       -75.6223832677  2.07E-01
   124 Broy./Diag. 0.10E+00    2.9     0.26663100       -75.7860442111 -1.64E-01
   125 Broy./Diag. 0.10E+00    2.9     0.11902140       -75.9420397628 -1.56E-01
   126 Broy./Diag. 0.10E+00    2.9     0.15087977       -75.9771252292 -3.51E-02
   127 Broy./Diag. 0.10E+00    2.9     0.18270851       -76.0494844677 -7.24E-02
   128 Broy./Diag. 0.10E+00    2.9     0.24850782       -76.0968119898 -4.73E-02
   129 Broy./Diag. 0.10E+00    2.9     0.24525388       -76.1319719700 -3.52E-02
   130 Broy./Diag. 0.10E+00    2.9     0.11120469       -76.0579885323  7.40E-02
   131 Broy./Diag. 0.10E+00    3.0     0.08705150       -76.0725618092 -1.46E-02
   132 Broy./Diag. 0.10E+00    2.9     0.18726152       -76.1062676878 -3.37E-02
   133 Broy./Diag. 0.10E+00    2.9     0.21765294       -76.0989809329  7.29E-03
   134 Broy./Diag. 0.10E+00    3.0     0.16295658       -76.0186319384  8.03E-02
   135 Broy./Diag. 0.10E+00    2.9     0.08031153       -75.9086751965  1.10E-01
   136 Broy./Diag. 0.10E+00    2.9     0.18029271       -75.8596643590  4.90E-02
   137 Broy./Diag. 0.10E+00    3.0     0.12804306       -75.9094936800 -4.98E-02
   138 Broy./Diag. 0.10E+00    2.9     0.29850724       -75.8088536134  1.01E-01
   139 Broy./Diag. 0.10E+00    2.9     0.27520196       -75.6593570612  1.49E-01
   140 Broy./Diag. 0.10E+00    2.9     0.11439493       -75.6737412936 -1.44E-02
   141 Broy./Diag. 0.10E+00    3.1     0.05811139       -75.6767376043 -3.00E-03
   142 Broy./Diag. 0.10E+00    2.9     0.04810950       -75.6667906113  9.95E-03
   143 Broy./Diag. 0.10E+00    2.9     0.04427749       -75.6595126200  7.28E-03
   144 Broy./Diag. 0.10E+00    2.9     0.03162393       -75.6713591965 -1.18E-02
   145 Broy./Diag. 0.10E+00    2.9     0.10735289       -75.7605357678 -8.92E-02
   146 Broy./Diag. 0.10E+00    2.9     0.08160305       -75.8068851046 -4.63E-02
   147 Broy./Diag. 0.10E+00    2.9     0.03068172       -75.8193089584 -1.24E-02
   148 Broy./Diag. 0.10E+00    2.9     0.17560630       -75.8196871090 -3.78E-04
   149 Broy./Diag. 0.10E+00    2.9     0.47105545       -75.8229524005 -3.27E-03
   150 Broy./Diag. 0.10E+00    2.9     0.30415143       -75.8401398588 -1.72E-02
   151 Broy./Diag. 0.10E+00    2.9     0.22640703       -75.8859698024 -4.58E-02
   152 Broy./Diag. 0.10E+00    2.9     0.15502987       -75.9741497999 -8.82E-02
   153 Broy./Diag. 0.10E+00    3.0     0.07199342       -76.0309184772 -5.68E-02
   154 Broy./Diag. 0.10E+00    3.0     0.05364308       -76.0230523639  7.87E-03
   155 Broy./Diag. 0.10E+00    2.9     0.04890097       -75.9954089592  2.76E-02
   156 Broy./Diag. 0.10E+00    3.0     0.05775899       -75.9903396884  5.07E-03
   157 Broy./Diag. 0.10E+00    3.0     0.01789055       -75.9917352559 -1.40E-03
   158 Broy./Diag. 0.10E+00    2.9     0.08923947       -75.9499285425  4.18E-02
   159 Broy./Diag. 0.10E+00    2.9     0.06701507       -75.9568971838 -6.97E-03
   160 Broy./Diag. 0.10E+00    2.9     0.09940660       -75.9453176662  1.16E-02
   161 Broy./Diag. 0.10E+00    3.0     0.05998357       -75.8944613204  5.09E-02
   162 Broy./Diag. 0.10E+00    2.9     0.06380828       -75.8743764978  2.01E-02
   163 Broy./Diag. 0.10E+00    2.9     0.08279506       -75.8642152172  1.02E-02
   164 Broy./Diag. 0.10E+00    3.0     0.09764075       -75.8512610531  1.30E-02
   165 Broy./Diag. 0.10E+00    3.0     0.04180683       -75.8083905380  4.29E-02
   166 Broy./Diag. 0.10E+00    2.9     0.03919997       -75.7984365122  9.95E-03
   167 Broy./Diag. 0.10E+00    2.9     0.03679113       -75.7777325811  2.07E-02
   168 Broy./Diag. 0.10E+00    2.9     0.01087228       -75.7728468421  4.89E-03
   169 Broy./Diag. 0.10E+00    2.9     0.03649211       -75.7841608462 -1.13E-02
   170 Broy./Diag. 0.10E+00    2.9     0.02452373       -75.8022807454 -1.81E-02
   171 Broy./Diag. 0.10E+00    2.9     0.03169516       -75.8285732268 -2.63E-02
   172 Broy./Diag. 0.10E+00    2.9     0.05866164       -75.8723987826 -4.38E-02
   173 Broy./Diag. 0.10E+00    2.9     0.17853039       -75.8481259212  2.43E-02
   174 Broy./Diag. 0.10E+00    2.9     0.10265514       -75.8805447073 -3.24E-02
   175 Broy./Diag. 0.10E+00    2.9     0.10949575       -75.8865127684 -5.97E-03
   176 Broy./Diag. 0.10E+00    2.9     0.06940837       -75.9034524990 -1.69E-02
   177 Broy./Diag. 0.10E+00    2.9     0.08902607       -75.9007611152  2.69E-03
   178 Broy./Diag. 0.10E+00    3.0     0.09991197       -75.8823753538  1.84E-02
   179 Broy./Diag. 0.10E+00    2.9     0.08889778       -75.8550005646  2.74E-02
   180 Broy./Diag. 0.10E+00    2.9     0.04369591       -75.8415644611  1.34E-02
   181 Broy./Diag. 0.10E+00    2.9     0.02016879       -75.8478755273 -6.31E-03
   182 Broy./Diag. 0.10E+00    2.9     0.01576842       -75.8611147118 -1.32E-02
   183 Broy./Diag. 0.10E+00    2.9     0.02273061       -75.8577935156  3.32E-03
   184 Broy./Diag. 0.10E+00    3.0     0.02839319       -75.8591966942 -1.40E-03
   185 Broy./Diag. 0.10E+00    2.9     0.03782031       -75.8613692292 -2.17E-03
   186 Broy./Diag. 0.10E+00    3.0     0.04199693       -75.8536872093  7.68E-03
   187 Broy./Diag. 0.10E+00    2.9     0.04087583       -75.8433753505  1.03E-02
   188 Broy./Diag. 0.10E+00    2.9     0.04178576       -75.8305570733  1.28E-02
   189 Broy./Diag. 0.10E+00    2.9     0.09181178       -75.8171826187  1.34E-02
   190 Broy./Diag. 0.10E+00    2.9     0.10938381       -75.8293583276 -1.22E-02
   191 Broy./Diag. 0.10E+00    3.0     0.11668779       -75.8294129425 -5.46E-05
   192 Broy./Diag. 0.10E+00    3.0     0.14822464       -75.8009475493  2.85E-02
   193 Broy./Diag. 0.10E+00    2.9     0.15500108       -75.7666222359  3.43E-02
   194 Broy./Diag. 0.10E+00    3.0     0.15614201       -75.7090139691  5.76E-02
   195 Broy./Diag. 0.10E+00    3.0     0.16217300       -75.6675312083  4.15E-02
   196 Broy./Diag. 0.10E+00    3.0     0.12105311       -75.6418355907  2.57E-02
   197 Broy./Diag. 0.10E+00    2.9     0.12239138       -75.6169552885  2.49E-02
   198 Broy./Diag. 0.10E+00    2.9     0.06321637       -75.5858830904  3.11E-02
[...]
 *    |             please set the keyword IGNORE_CONVERGENCE_FAILURE.         *
 *  O/|                                                                        *
 * /| |                                                                        *
 * / \                                                            qs_scf.F:611 *
 *******************************************************************************


 ===== Routine Calling Stack ===== 

            3 scf_env_do_scf
            2 qs_energies
            1 CP2K

 *******************************************************************************
 *   ___                                                                       *
 *  /   \                                                                      *
 * [ABORT]                                                                     *
 *  \___/     SCF run NOT converged. To continue the calculation regardless,   *
 *    |             please set the keyword IGNORE_CONVERGENCE_FAILURE.         *
 *  O/|                                                                        *
 * /| |                                                                        *
 * / \                                                            qs_scf.F:611 *
 *******************************************************************************


 ===== Routine Calling Stack ===== 

            3 scf_env_do_scf
            2 qs_energies
            1 CP2K

 *******************************************************************************
 *   ___                                                                       *
 *  /   \                                                                      *
 * [ABORT]                                                                     *
 *  \___/     SCF run NOT converged. To continue the calculation regardless,   *
 *    |             please set the keyword IGNORE_CONVERGENCE_FAILURE.         *
 *  O/|                                                                        *
 * /| |                                                                        *
 * / \                                                            qs_scf.F:611 *
 *******************************************************************************


 ===== Routine Calling Stack ===== 

            3 scf_env_do_scf
            2 qs_energies
            1 CP2K

 *******************************************************************************
 *   ___                                                                       *
 *  /   \                                                                      *
 * [ABORT]                                                                     *
 *  \___/     SCF run NOT converged. To continue the calculation regardless,   *
 *    |             please set the keyword IGNORE_CONVERGENCE_FAILURE.         *
 *  O/|                                                                        *
 * /| |                                                                        *
 * / \                                                            qs_scf.F:611 *
 *******************************************************************************


 ===== Routine Calling Stack ===== 

            3 scf_env_do_scf
            2 qs_energies
            1 CP2K

 *******************************************************************************
 *   ___                                                                       *
 *  /   \                                                                      *
 * [ABORT]                                                                     *
 *  \___/     SCF run NOT converged. To continue the calculation regardless,   *
 *    |             please set the keyword IGNORE_CONVERGENCE_FAILURE.         *
 *  O/|                                                                        *
 * /| |                                                                        *
 * / \                                                            qs_scf.F:611 *
 *******************************************************************************


 ===== Routine Calling Stack ===== 

            3 scf_env_do_scf
            2 qs_energies
            1 CP2K

 *******************************************************************************
 *   ___                                                                       *
 *  /   \                                                                      *
 * [ABORT]                                                                     *
 *  \___/     SCF run NOT converged. To continue the calculation regardless,   *
 *    |             please set the keyword IGNORE_CONVERGENCE_FAILURE.         *
 *  O/|                                                                        *
 * /| |                                                                        *
 * / \                                                            qs_scf.F:611 *
 *******************************************************************************


 ===== Routine Calling Stack ===== 

            3 scf_env_do_scf
            2 qs_energies
            1 CP2K

 *******************************************************************************
 *   ___                                                                       *
 *  /   \                                                                      *
 * [ABORT]                                                                     *
 *  \___/     SCF run NOT converged. To continue the calculation regardless,   *
 *    |             please set the keyword IGNORE_CONVERGENCE_FAILURE.         *
 *  O/|                                                                        *
 * /| |                                                                        *
 * / \                                                            qs_scf.F:611 *
 *******************************************************************************


 ===== Routine Calling Stack ===== 

            3 scf_env_do_scf
            2 qs_energies
            1 CP2K

 *******************************************************************************
 *   ___                                                                       *
 *  /   \                                                                      *
 * [ABORT]                                                                     *
 *  \___/     SCF run NOT converged. To continue the calculation regardless,   *
 *    |             please set the keyword IGNORE_CONVERGENCE_FAILURE.         *
 *  O/|                                                                        *
 * /| |                                                                        *
 * / \                                                            qs_scf.F:611 *
 *******************************************************************************


 ===== Routine Calling Stack ===== 

            3 scf_env_do_scf
            2 qs_energies
            1 CP2K

 *******************************************************************************
 *   ___                                                                       *
 *  /   \                                                                      *
 * [ABORT]                                                                     *
 *  \___/     SCF run NOT converged. To continue the calculation regardless,   *
 *    |             please set the keyword IGNORE_CONVERGENCE_FAILURE.         *
 *  O/|                                                                        *
 * /| |                                                                        *
 * / \                                                            qs_scf.F:611 *
 *******************************************************************************


 ===== Routine Calling Stack ===== 

            3 scf_env_do_scf
            2 qs_energies
            1 CP2K

 *******************************************************************************
 *   ___                                                                       *
 *  /   \                                                                      *
 * [ABORT]                                                                     *
 *  \___/     SCF run NOT converged. To continue the calculation regardless,   *
 *    |             please set the keyword IGNORE_CONVERGENCE_FAILURE.         *
 *  O/|                                                                        *
 * /| |                                                                        *
 * / \                                                            qs_scf.F:611 *
 *******************************************************************************


 ===== Routine Calling Stack ===== 

            3 scf_env_do_scf
            2 qs_energies
            1 CP2K

 *******************************************************************************
 *   ___                                                                       *
 *  /   \                                                                      *
 * [ABORT]                                                                     *
 *  \___/     SCF run NOT converged. To continue the calculation regardless,   *
 *    |             please set the keyword IGNORE_CONVERGENCE_FAILURE.         *
 *  O/|                                                                        *
 * /| |                                                                        *
 * / \                                                            qs_scf.F:611 *
 *******************************************************************************


 ===== Routine Calling Stack ===== 

            3 scf_env_do_scf
            2 qs_energies
            1 CP2K

 *******************************************************************************
 *   ___                                                                       *
 *  /   \                                                                      *
 * [ABORT]                                                                     *
 *  \___/     SCF run NOT converged. To continue the calculation regardless,   *
 *    |             please set the keyword IGNORE_CONVERGENCE_FAILURE.         *
 *  O/|                                                                        *
 * /| |                                                                        *
 * / \                                                            qs_scf.F:611 *
 *******************************************************************************


 ===== Routine Calling Stack ===== 

            3 scf_env_do_scf
            2 qs_energies
            1 CP2K

 *******************************************************************************
 *   ___                                                                       *
 *  /   \                                                                      *
 * [ABORT]                                                                     *
 *  \___/     SCF run NOT converged. To continue the calculation regardless,   *
 *    |             please set the keyword IGNORE_CONVERGENCE_FAILURE.         *
 *  O/|                                                                        *
 * /| |                                                                        *
 * / \                                                            qs_scf.F:611 *
 *******************************************************************************


 ===== Routine Calling Stack ===== 

            3 scf_env_do_scf
            2 qs_energies
            1 CP2K

 *******************************************************************************
 *   ___                                                                       *
 *  /   \                                                                      *
 * [ABORT]                                                                     *
 *  \___/     SCF run NOT converged. To continue the calculation regardless,   *
 *    |             please set the keyword IGNORE_CONVERGENCE_FAILURE.         *
 *  O/|                                                                        *
 * /| |                                                                        *
 * / \                                                            qs_scf.F:611 *
 *******************************************************************************


 ===== Routine Calling Stack ===== 

            3 scf_env_do_scf
            2 qs_energies
            1 CP2K

 *******************************************************************************
 *   ___                                                                       *
 *  /   \                                                                      *
 * [ABORT]                                                                     *
 *  \___/     SCF run NOT converged. To continue the calculation regardless,   *
 *    |             please set the keyword IGNORE_CONVERGENCE_FAILURE.         *
 *  O/|                                                                        *
 * /| |                                                                        *
 * / \                                                            qs_scf.F:611 *
 *******************************************************************************


 ===== Routine Calling Stack ===== 

            3 scf_env_do_scf
            2 qs_energies
            1 CP2K

 *******************************************************************************
 *   ___                                                                       *
 *  /   \                                                                      *
 * [ABORT]                                                                     *
 *  \___/     SCF run NOT converged. To continue the calculation regardless,   *
 *    |             please set the keyword IGNORE_CONVERGENCE_FAILURE.         *
 *  O/|                                                                        *
 * /| |                                                                        *
 * / \                                                            qs_scf.F:611 *
 *******************************************************************************


 ===== Routine Calling Stack ===== 

            3 scf_env_do_scf
            2 qs_energies
            1 CP2K

 *******************************************************************************
 *   ___                                                                       *
 *  /   \                                                                      *
 * [ABORT]                                                                     *
 *  \___/     SCF run NOT converged. To continue the calculation regardless,   *
 *    |             please set the keyword IGNORE_CONVERGENCE_FAILURE.         *
 *  O/|                                                                        *
 * /| |                                                                        *
 * / \                                                            qs_scf.F:611 *
 *******************************************************************************


 ===== Routine Calling Stack ===== 

            3 scf_env_do_scf
            2 qs_energies
            1 CP2K

 *******************************************************************************
 *   ___                                                                       *
 *  /   \                                                                      *
 * [ABORT]                                                                     *
 *  \___/     SCF run NOT converged. To continue the calculation regardless,   *
 *    |             please set the keyword IGNORE_CONVERGENCE_FAILURE.         *
 *  O/|                                                                        *
 * /| |                                                                        *
 * / \                                                            qs_scf.F:611 *
 *******************************************************************************


 ===== Routine Calling Stack ===== 

            3 scf_env_do_scf
            2 qs_energies
            1 CP2K

 *******************************************************************************
 *   ___                                                                       *
 *  /   \                                                                      *
 * [ABORT]                                                                     *
 *  \___/     SCF run NOT converged. To continue the calculation regardless,   *
 *    |             please set the keyword IGNORE_CONVERGENCE_FAILURE.         *
 *  O/|                                                                        *
 * /| |                                                                        *
 * / \                                                            qs_scf.F:611 *
 *******************************************************************************


 ===== Routine Calling Stack ===== 

            3 scf_env_do_scf
            2 qs_energies
            1 CP2K

 *******************************************************************************
 *   ___                                                                       *
 *  /   \                                                                      *
 * [ABORT]                                                                     *
 *  \___/     SCF run NOT converged. To continue the calculation regardless,   *
 *    |             please set the keyword IGNORE_CONVERGENCE_FAILURE.         *
 *  O/|                                                                        *
 * /| |                                                                        *
 * / \                                                            qs_scf.F:611 *
 *******************************************************************************


 ===== Routine Calling Stack ===== 

            3 scf_env_do_scf
            2 qs_energies
            1 CP2K

 *******************************************************************************
 *   ___                                                                       *
 *  /   \                                                                      *
 * [ABORT]                                                                     *
 *  \___/     SCF run NOT converged. To continue the calculation regardless,   *
 *    |             please set the keyword IGNORE_CONVERGENCE_FAILURE.         *
 *  O/|                                                                        *
 * /| |                                                                        *
 * / \                                                            qs_scf.F:611 *
 *******************************************************************************


 ===== Routine Calling Stack ===== 

            3 scf_env_do_scf
            2 qs_energies
            1 CP2K

 *******************************************************************************
 *   ___                                                                       *
 *  /   \                                                                      *
 * [ABORT]                                                                     *
 *  \___/     SCF run NOT converged. To continue the calculation regardless,   *
 *    |             please set the keyword IGNORE_CONVERGENCE_FAILURE.         *
 *  O/|                                                                        *
 * /| |                                                                        *
 * / \                                                            qs_scf.F:611 *
 *******************************************************************************


 ===== Routine Calling Stack ===== 

            3 scf_env_do_scf
            2 qs_energies
            1 CP2K
