 DBCSR| CPU Multiplication driver                                           BLAS (U)
 DBCSR| Multrec recursion limit                                              512 (U)
 DBCSR| Multiplication stack size                                           1000 (D)
 DBCSR| Maximum elements for images                                    UNLIMITED (U)
 DBCSR| Multiplicative factor virtual images                                   1 (U)
 DBCSR| Use multiplication densification                                       T (D)
 DBCSR| Multiplication size stacks                                             3 (U)
 DBCSR| Use memory pool for CPU allocation                                     F (U)
 DBCSR| Number of 3D layers                                               SINGLE (U)
 DBCSR| Use MPI memory allocation                                              F (U)
 DBCSR| Use RMA algorithm                                                      F (U)
 DBCSR| Use Communication thread                                               T (U)
 DBCSR| Communication thread load                                             75 (D)
 DBCSR| MPI: My process id                                                     0
 DBCSR| MPI: Number of processes                                              24
 DBCSR| OMP: Current number of threads                                         4
 DBCSR| OMP: Max number of threads                                             4
 DBCSR| Split modifier for TAS multiplication algorithm                  1.0E+00 (U)


  **** **** ******  **  PROGRAM STARTED AT               2025-03-11 06:11:56.808
 ***** ** ***  *** **   PROGRAM STARTED ON                          i02r10c05s08
 **    ****   ******    PROGRAM STARTED BY                               di38fab
 ***** **    ** ** **   PROGRAM PROCESS ID                               2761683
  **** **  *******  **  PROGRAM STARTED IN /hppfs/scratch/04/di38fab/05_MOL/W4-1
                                           1+ALK/nh/aug-cc-pVDZ

 CP2K| version string:                 CP2K version 2025.1 (Development Version)
 CP2K| source code revision number:                                  git:d2e611a
 CP2K| cp2kflags: omp libint fftw3 libxc parallel scalapack max_contr=4         
 CP2K| is freely available from                            https://www.cp2k.org/
 CP2K| Program compiled at                       Thu 06 Mar 2025 05:09:20 PM CET
 CP2K| Program compiled on                                               login02
 CP2K| Program compiled for                                        Supermuc-foss
 CP2K| Data directory path                  /hppfs/work/pn36zo/di38fab/cp2k/data
 CP2K| Input file name                                                    GW.inp

 GLOBAL| Force Environment number                                              1
 GLOBAL| Basis set file name            /hppfs/scratch/04/di38fab/04_TMD/BASIS_A
 GLOBAL| Potential file name            /hppfs/work/pn36zo/di38fab/cp2k/data/ALL
 GLOBAL| MM Potential file name                                     MM_POTENTIAL
 GLOBAL| Coordinate file name                                      __STD_INPUT__
 GLOBAL| Method name                                                        CP2K
 GLOBAL| Project name                                                       MoS2
 GLOBAL| Run type                                                         ENERGY
 GLOBAL| FFT library                                                       FFTW3
 GLOBAL| Diagonalization library                                       ScaLAPACK
 GLOBAL| DGEMM library                                                      BLAS
 GLOBAL| Orthonormality check for eigenvectors                          DISABLED
 GLOBAL| Matrix multiplication library                                 ScaLAPACK
 GLOBAL| All-to-all communication in single precision                          F
 GLOBAL| FFTs using library dependent lengths                                  F
 GLOBAL| Grid backend                                                       AUTO
 GLOBAL| Global print level                                               MEDIUM
 GLOBAL| MPI I/O enabled                                                       T
 GLOBAL| Total number of message passing processes                            24
 GLOBAL| Number of threads for this process                                    4
 GLOBAL| This output is from process                                           0
 GLOBAL| OpenMP stack size per thread (OMP_STACKSIZE)                    default
 GLOBAL| CPU model name             Intel(R) Xeon(R) Platinum 8174 CPU @ 3.10GHz

 MEMORY| system memory details [Kb]
 MEMORY|                        rank 0           min           max       average
 MEMORY| MemTotal             98436664      98436660      98436664      98436662
 MEMORY| MemFree              83954040      83954040      84400188      84177114
 MEMORY| Buffers                     0             0             0             0
 MEMORY| Cached                2438192       2400752       2438192       2419472
 MEMORY| Slab                  1270360       1134152       1270360       1202256
 MEMORY| SReclaimable           273836        254716        273836        264276
 MEMORY| MemLikelyFree        86666068      86666068      87055656      86860862


 *** Fundamental physical constants (SI units) ***

 *** Literature: B. J. Mohr and B. N. Taylor,
 ***             CODATA recommended values of the fundamental physical
 ***             constants: 2006, Web Version 5.1
 ***             http://physics.nist.gov/constants

 Speed of light in vacuum [m/s]                             2.99792458000000E+08
 Magnetic constant or permeability of vacuum [N/A**2]       1.25663706143592E-06
 Electric constant or permittivity of vacuum [F/m]          8.85418781762039E-12
 Planck constant (h) [J*s]                                  6.62606896000000E-34
 Planck constant (h-bar) [J*s]                              1.05457162825177E-34
 Elementary charge [C]                                      1.60217648700000E-19
 Electron mass [kg]                                         9.10938215000000E-31
 Electron g factor [ ]                                     -2.00231930436220E+00
 Proton mass [kg]                                           1.67262163700000E-27
 Fine-structure constant                                    7.29735253760000E-03
 Rydberg constant [1/m]                                     1.09737315685270E+07
 Avogadro constant [1/mol]                                  6.02214179000000E+23
 Boltzmann constant [J/K]                                   1.38065040000000E-23
 Atomic mass unit [kg]                                      1.66053878200000E-27
 Bohr radius [m]                                            5.29177208590000E-11

 *** Conversion factors ***

 [u] -> [a.u.]                                              1.82288848426455E+03
 [Angstrom] -> [Bohr] = [a.u.]                              1.88972613288564E+00
 [a.u.] = [Bohr] -> [Angstrom]                              5.29177208590000E-01
 [a.u.] -> [s]                                              2.41888432650478E-17
 [a.u.] -> [fs]                                             2.41888432650478E-02
 [a.u.] -> [J]                                              4.35974393937059E-18
 [a.u.] -> [N]                                              8.23872205491840E-08
 [a.u.] -> [K]                                              3.15774647902944E+05
 [a.u.] -> [kJ/mol]                                         2.62549961709828E+03
 [a.u.] -> [kcal/mol]                                       6.27509468713739E+02
 [a.u.] -> [Pa]                                             2.94210107994716E+13
 [a.u.] -> [bar]                                            2.94210107994716E+08
 [a.u.] -> [atm]                                            2.90362800883016E+08
 [a.u.] -> [eV]                                             2.72113838565563E+01
 [a.u.] -> [Hz]                                             6.57968392072181E+15
 [a.u.] -> [1/cm] (wave numbers)                            2.19474631370540E+05
 [a.u./Bohr**2] -> [1/cm]                                   5.14048714338585E+03
 

 CELL_TOP| Volume [angstrom^3]:                                     27000.000000
 CELL_TOP| Vector a [angstrom    30.000     0.000     0.000   |a| =    30.000000
 CELL_TOP| Vector b [angstrom     0.000    30.000     0.000   |b| =    30.000000
 CELL_TOP| Vector c [angstrom     0.000     0.000    30.000   |c| =    30.000000
 CELL_TOP| Angle (b,c), alpha [degree]:                                90.000000
 CELL_TOP| Angle (a,c), beta  [degree]:                                90.000000
 CELL_TOP| Angle (a,b), gamma [degree]:                                90.000000
 CELL_TOP| Numerically orthorhombic:                                         YES
 CELL_TOP| Periodicity                                                      NONE

 GENERATE|  Preliminary Number of Bonds generated:                             0
 GENERATE|  Achieved consistency in connectivity generation.

 CELL| Volume [angstrom^3]:                                         27000.000000
 CELL| Vector a [angstrom]:      30.000     0.000     0.000   |a| =    30.000000
 CELL| Vector b [angstrom]:       0.000    30.000     0.000   |b| =    30.000000
 CELL| Vector c [angstrom]:       0.000     0.000    30.000   |c| =    30.000000
 CELL| Angle (b,c), alpha [degree]:                                    90.000000
 CELL| Angle (a,c), beta  [degree]:                                    90.000000
 CELL| Angle (a,b), gamma [degree]:                                    90.000000
 CELL| Numerically orthorhombic:                                             YES
 CELL| Periodicity                                                          NONE

 CELL_REF| Volume [angstrom^3]:                                     27000.000000
 CELL_REF| Vector a [angstrom    30.000     0.000     0.000   |a| =    30.000000
 CELL_REF| Vector b [angstrom     0.000    30.000     0.000   |b| =    30.000000
 CELL_REF| Vector c [angstrom     0.000     0.000    30.000   |c| =    30.000000
 CELL_REF| Angle (b,c), alpha [degree]:                                90.000000
 CELL_REF| Angle (a,c), beta  [degree]:                                90.000000
 CELL_REF| Angle (a,b), gamma [degree]:                                90.000000
 CELL_REF| Numerically orthorhombic:                                         YES
 CELL_REF| Periodicity                                                      NONE

 *******************************************************************************
 *******************************************************************************
 **                                                                           **
 **     #####                         ##              ##                      **
 **    ##   ##            ##          ##              ##                      **
 **   ##     ##                       ##            ######                    **
 **   ##     ##  ##   ##  ##   #####  ##  ##   ####   ##    #####    #####    **
 **   ##     ##  ##   ##  ##  ##      ## ##   ##      ##   ##   ##  ##   ##   **
 **   ##  ## ##  ##   ##  ##  ##      ####     ###    ##   ######   ######    **
 **    ##  ###   ##   ##  ##  ##      ## ##      ##   ##   ##       ##        **
 **     #######   #####   ##   #####  ##  ##  ####    ##    #####   ##        **
 **           ##                                                    ##        **
 **                                                                           **
 **                                                ... make the atoms dance   **
 **                                                                           **
 **            Copyright (C) by CP2K developers group (2000-2025)             **
 **                      J. Chem. Phys. 152, 194103 (2020)                    **
 **                                                                           **
 *******************************************************************************

 DFT| Spin restricted Kohn-Sham (RKS) calculation                            RKS
 DFT| Multiplicity                                                             1
 DFT| Number of spin states                                                    1
 DFT| Charge                                                                   0
 DFT| Self-interaction correction (SIC)                                       NO
 DFT| Cutoffs: density                                              1.000000E-10
 DFT|          gradient                                             1.000000E-10
 DFT|          tau                                                  1.000000E-10
 DFT|          cutoff_smoothing_range                               0.000000E+00
 DFT| XC density smoothing                                                  NONE
 DFT| XC derivatives                                                          PW

 FUNCTIONAL| PBE:
 FUNCTIONAL| J.P.Perdew, K.Burke, M.Ernzerhof, Phys. Rev. Letter, vol. 77, n 18,
 FUNCTIONAL|  pp. 3865-3868, (1996)sx=0.750sc=1.000{spin unpolarized}           


 QS| Method:                                                                GAPW
 QS| Density plane wave grid type                        NON-SPHERICAL FULLSPACE
 QS| Number of grid levels:                                                    4
 QS| Density cutoff [a.u.]:                                                250.0
 QS| Multi grid cutoff [a.u.]: 1) grid level                               250.0
 QS|                           2) grid level                                83.3
 QS|                           3) grid level                                27.8
 QS|                           4) grid level                                 9.3
 QS| Grid level progression factor:                                          3.0
 QS| Relative density cutoff [a.u.]:                                        50.0
 QS| Interaction thresholds: eps_pgf_orb:                                1.0E-12
 QS|                         eps_filter_matrix:                          0.0E+00
 QS|                         eps_core_charge:                            1.0E-14
 QS|                         eps_rho_gspace:                             1.0E-12
 QS|                         eps_rho_rspace:                             1.0E-12
 QS|                         eps_gvg_rspace:                             1.0E-06
 QS|                         eps_ppl:                                    1.0E-02
 QS|                         eps_ppnl:                                   1.0E-08
 QS| GAPW|      One center basis from orbital basis primitives
 QS| GAPW|                   eps_fit:                                    1.0E-04
 QS| GAPW|                   eps_iso:                                    1.0E-12
 QS| GAPW|                   eps_svd:                                    1.0E-08
 QS| GAPW|                   eps_cpc:                                    1.0E-12
 QS| GAPW|   atom-r-grid: quadrature:                                     GC_LOG
 QS| GAPW|      atom-s-grid:  max l :                                          4
 QS| GAPW|      max_l_rho0 :                                                   2


 ATOMIC KIND INFORMATION

  1. Atomic kind: N                                     Number of atoms:       1

     Orbital Basis Set                                               aug-cc-pVDZ

       Number of orbital shell sets:                                           6
       Number of orbital shells:                                               9
       Number of primitive Cartesian functions:                               17
       Number of Cartesian basis functions:                                   25
       Number of spherical basis functions:                                   23
       Norm type:                                                              2

       Normalised Cartesian orbitals:

                        Set   Shell   Orbital            Exponent    Coefficient

                          1       1    1px               0.056110       0.038926
                          1       1    1py               0.056110       0.038926
                          1       1    1pz               0.056110       0.038926

                          2       1    1s                0.061240       0.087738

                          3       1    1px              13.550000       1.479258
                                                         2.917000       1.180072
                                                         0.797300       0.548036
                                                         0.218500       0.098423
                          3       1    1py              13.550000       1.479258
                                                         2.917000       1.180072
                                                         0.797300       0.548036
                                                         0.218500       0.098423
                          3       1    1pz              13.550000       1.479258
                                                         2.917000       1.180072
                                                         0.797300       0.548036
                                                         0.218500       0.098423

                          3       2    2px              13.550000       0.000000
                                                         2.917000       0.000000
                                                         0.797300       0.000000
                                                         0.218500       0.212939
                          3       2    2py              13.550000       0.000000
                                                         2.917000       0.000000
                                                         0.797300       0.000000
                                                         0.218500       0.212939
                          3       2    2pz              13.550000       0.000000
                                                         2.917000       0.000000
                                                         0.797300       0.000000
                                                         0.218500       0.212939

                          4       1    1s             9046.000000       0.462754
                                                      1357.000000       0.858723
                                                       309.300000       1.440591
                                                        87.730000       2.108533
                                                        28.560000       2.454153
                                                        10.210000       1.825915
                                                         3.838000       0.543758
                                                         0.746600       0.008838
                                                         0.224800      -0.000666

                          4       2    2s             9046.000000      -0.101145
                                                      1357.000000      -0.192492
                                                       309.300000      -0.314968
                                                        87.730000      -0.501437
                                                        28.560000      -0.593976
                                                        10.210000      -0.643503
                                                         3.838000      -0.238093
                                                         0.746600       0.314268
                                                         0.224800       0.134678

                          4       3    3s             9046.000000       0.000000
                                                      1357.000000       0.000000
                                                       309.300000       0.000000
                                                        87.730000       0.000000
                                                        28.560000       0.000000
                                                        10.210000       0.000000
                                                         3.838000       0.000000
                                                         0.746600       0.000000
                                                         0.224800       0.232679

                          5       1    1dx2              0.230000       0.125728
                          5       1    1dxy              0.230000       0.217768
                          5       1    1dxz              0.230000       0.217768
                          5       1    1dy2              0.230000       0.125728
                          5       1    1dyz              0.230000       0.217768
                          5       1    1dz2              0.230000       0.125728

                          6       1    1dx2              0.817000       1.155575
                          6       1    1dxy              0.817000       2.001514
                          6       1    1dxz              0.817000       2.001514
                          6       1    1dy2              0.817000       1.155575
                          6       1    1dyz              0.817000       2.001514
                          6       1    1dz2              0.817000       1.155575

     RI Auxiliary Basis Set                                    aug-cc-pVDZ-OPTRI

       Number of orbital shell sets:                                          17
       Number of orbital shells:                                              17
       Number of primitive Cartesian functions:                               17
       Number of Cartesian basis functions:                                   88
       Number of spherical basis functions:                                   69
       Norm type:                                                              2

       Normalised Cartesian orbitals:

                        Set   Shell   Orbital            Exponent    Coefficient

                          1       1    1s                0.091449       0.118521

                          2       1    1px               0.115183       0.095648
                          2       1    1py               0.115183       0.095648
                          2       1    1pz               0.115183       0.095648

                          3       1    1px               0.322548       0.346484
                          3       1    1py               0.322548       0.346484
                          3       1    1pz               0.322548       0.346484

                          4       1    1dx2              0.422464       0.364369
                          4       1    1dxy              0.422464       0.631106
                          4       1    1dxz              0.422464       0.631106
                          4       1    1dy2              0.422464       0.364369
                          4       1    1dyz              0.422464       0.631106
                          4       1    1dz2              0.422464       0.364369

                          5       1    1fx3              0.510986       0.324994
                          5       1    1fx2y             0.510986       0.726708
                          5       1    1fx2z             0.510986       0.726708
                          5       1    1fxy2             0.510986       0.726708
                          5       1    1fxyz             0.510986       1.258694
                          5       1    1fxz2             0.510986       0.726708
                          5       1    1fy3              0.510986       0.324994
                          5       1    1fy2z             0.510986       0.726708
                          5       1    1fyz2             0.510986       0.726708
                          5       1    1fz3              0.510986       0.324994

                          6       1    1px               0.679523       0.879418
                          6       1    1py               0.679523       0.879418
                          6       1    1pz               0.679523       0.879418

                          7       1    1s                0.726628       0.560911

                          8       1    1fx3              1.397681       3.126962
                          8       1    1fx2y             1.397681       6.992099
                          8       1    1fx2z             1.397681       6.992099
                          8       1    1fxy2             1.397681       6.992099
                          8       1    1fxyz             1.397681      12.110671
                          8       1    1fxz2             1.397681       6.992099
                          8       1    1fy3              1.397681       3.126962
                          8       1    1fy2z             1.397681       6.992099
                          8       1    1fyz2             1.397681       6.992099
                          8       1    1fz3              1.397681       3.126962

                          9       1    1px               1.431573       2.232066
                          9       1    1py               1.431573       2.232066
                          9       1    1pz               1.431573       2.232066

                         10       1    1gx4              1.484177       3.296257
                         10       1    1gx3y             1.484177       8.721077
                         10       1    1gx3z             1.484177       8.721077
                         10       1    1gx2y2            1.484177      11.258862
                         10       1    1gx2yz            1.484177      19.500921
                         10       1    1gx2z2            1.484177      11.258862
                         10       1    1gxy3             1.484177       8.721077
                         10       1    1gxy2z            1.484177      19.500921
                         10       1    1gxyz2            1.484177      19.500921
                         10       1    1gxz3             1.484177       8.721077
                         10       1    1gy4              1.484177       3.296257
                         10       1    1gy3z             1.484177       8.721077
                         10       1    1gy2z2            1.484177      11.258862
                         10       1    1gyz3             1.484177       8.721077
                         10       1    1gz4              1.484177       3.296257

                         11       1    1dx2              1.846235       4.812954
                         11       1    1dxy              1.846235       8.336280
                         11       1    1dxz              1.846235       8.336280
                         11       1    1dy2              1.846235       4.812954
                         11       1    1dyz              1.846235       8.336280
                         11       1    1dz2              1.846235       4.812954

                         12       1    1s                2.651372       1.480857

                         13       1    1px               3.015942       5.665247
                         13       1    1py               3.015942       5.665247
                         13       1    1pz               3.015942       5.665247

                         14       1    1dx2              3.588066      15.396259
                         14       1    1dxy              3.588066      26.667102
                         14       1    1dxz              3.588066      26.667102
                         14       1    1dy2              3.588066      15.396259
                         14       1    1dyz              3.588066      26.667102
                         14       1    1dz2              3.588066      15.396259

                         15       1    1fx3              4.092837      35.075951
                         15       1    1fx2y             4.092837      78.432212
                         15       1    1fx2z             4.092837      78.432212
                         15       1    1fxy2             4.092837      78.432212
                         15       1    1fxyz             4.092837     135.848576
                         15       1    1fxz2             4.092837      78.432212
                         15       1    1fy3              4.092837      35.075951
                         15       1    1fy2z             4.092837      78.432212
                         15       1    1fyz2             4.092837      78.432212
                         15       1    1fz3              4.092837      35.075951

                         16       1    1dx2              6.973227      49.251404
                         16       1    1dxy              6.973227      85.305933
                         16       1    1dxz              6.973227      85.305933
                         16       1    1dy2              6.973227      49.251404
                         16       1    1dyz              6.973227      85.305933
                         16       1    1dz2              6.973227      49.251404

                         17       1    1s                9.674522       3.909599

       Atomic covalent radius [Angstrom]:                                  0.750

       Atomic van der Waals radius [Angstrom]:                             1.550

     The atoms of this atomic kind are PAW atoms (GAPW):
       Hard Gaussian function radius:                                      1.512
       Rho0 radius:                                                        1.512
       Maximum GTO radius used for PAW projector construction:            24.566

     GAPW Soft Basis Set                                        aug-cc-pVDZ_soft

       Number of orbital shell sets:                                           6
       Number of orbital shells:                                               9
       Number of primitive Cartesian functions:                               10
       Number of Cartesian basis functions:                                   25
       Number of spherical basis functions:                                   23
       Norm type:                                                              2

       Normalised Cartesian orbitals:

                        Set   Shell   Orbital            Exponent    Coefficient

                          1       1    1px               0.056110       0.038926
                          1       1    1py               0.056110       0.038926
                          1       1    1pz               0.056110       0.038926

                          2       1    1s                0.061240       0.087738

                          3       1    1px               2.917000       1.180072
                                                         0.797300       0.548036
                                                         0.218500       0.098423
                          3       1    1py               2.917000       1.180072
                                                         0.797300       0.548036
                                                         0.218500       0.098423
                          3       1    1pz               2.917000       1.180072
                                                         0.797300       0.548036
                                                         0.218500       0.098423

                          3       2    2px               2.917000       0.000000
                                                         0.797300       0.000000
                                                         0.218500       0.212939
                          3       2    2py               2.917000       0.000000
                                                         0.797300       0.000000
                                                         0.218500       0.212939
                          3       2    2pz               2.917000       0.000000
                                                         0.797300       0.000000
                                                         0.218500       0.212939

                          4       1    1s                3.838000       0.543758
                                                         0.746600       0.008838
                                                         0.224800      -0.000666

                          4       2    2s                3.838000      -0.238093
                                                         0.746600       0.314268
                                                         0.224800       0.134678

                          4       3    3s                3.838000       0.000000
                                                         0.746600       0.000000
                                                         0.224800       0.232679

                          5       1    1dx2              0.230000       0.125728
                          5       1    1dxy              0.230000       0.217768
                          5       1    1dxz              0.230000       0.217768
                          5       1    1dy2              0.230000       0.125728
                          5       1    1dyz              0.230000       0.217768
                          5       1    1dz2              0.230000       0.125728

                          6       1    1dx2              0.817000       1.155575
                          6       1    1dxy              0.817000       2.001514
                          6       1    1dxz              0.817000       2.001514
                          6       1    1dy2              0.817000       1.155575
                          6       1    1dyz              0.817000       2.001514
                          6       1    1dz2              0.817000       1.155575

     AE Potential information for                                            ALL

       Description:                                       All-electron potential
                                          Krack, Parrinello, PCCP 2, 2105 (2000)

       Gaussian exponent of the core charge distribution:               5.979100
       Electronic configuration (s p d ...):                           4   3   0

  2. Atomic kind: H                                     Number of atoms:       1

     Orbital Basis Set                                               aug-cc-pVDZ

       Number of orbital shell sets:                                           4
       Number of orbital shells:                                               5
       Number of primitive Cartesian functions:                                7
       Number of Cartesian basis functions:                                    9
       Number of spherical basis functions:                                    9
       Norm type:                                                              2

       Normalised Cartesian orbitals:

                        Set   Shell   Orbital            Exponent    Coefficient

                          1       1    1s                0.029740       0.051041

                          2       1    1s               13.010000       0.096107
                                                         1.962000       0.163020
                                                         0.444600       0.185545
                                                         0.122000       0.073744

                          2       2    2s               13.010000       0.000000
                                                         1.962000       0.000000
                                                         0.444600       0.000000
                                                         0.122000       0.147123

                          3       1    1px               0.141000       0.123158
                          3       1    1py               0.141000       0.123158
                          3       1    1pz               0.141000       0.123158

                          4       1    1px               0.727000       0.956881
                          4       1    1py               0.727000       0.956881
                          4       1    1pz               0.727000       0.956881

     RI Auxiliary Basis Set                                    aug-cc-pVDZ-OPTRI

       Number of orbital shell sets:                                           8
       Number of orbital shells:                                               8
       Number of primitive Cartesian functions:                                8
       Number of Cartesian basis functions:                                   24
       Number of spherical basis functions:                                   22
       Norm type:                                                              2

       Normalised Cartesian orbitals:

                        Set   Shell   Orbital            Exponent    Coefficient

                          1       1    1s                0.081394       0.108606

                          2       1    1px               0.273202       0.281543
                          2       1    1py               0.273202       0.281543
                          2       1    1pz               0.273202       0.281543

                          3       1    1s                0.286540       0.279125

                          4       1    1dx2              0.757634       1.012660
                          4       1    1dxy              0.757634       1.753978
                          4       1    1dxz              0.757634       1.753978
                          4       1    1dy2              0.757634       1.012660
                          4       1    1dyz              0.757634       1.753978
                          4       1    1dz2              0.757634       1.012660

                          5       1    1px               1.251075       1.886011
                          5       1    1py               1.251075       1.886011
                          5       1    1pz               1.251075       1.886011

                          6       1    1s                1.320036       0.877707

                          7       1    1dx2              2.604730       8.790108
                          7       1    1dxy              2.604730      15.224913
                          7       1    1dxz              2.604730      15.224913
                          7       1    1dy2              2.604730       8.790108
                          7       1    1dyz              2.604730      15.224913
                          7       1    1dz2              2.604730       8.790108

                          8       1    1px               2.667161       4.858494
                          8       1    1py               2.667161       4.858494
                          8       1    1pz               2.667161       4.858494

       Atomic covalent radius [Angstrom]:                                  0.320

       Atomic van der Waals radius [Angstrom]:                             1.090

     The atoms of this atomic kind are PAW atoms (GAPW):
       Hard Gaussian function radius:                                      1.200
       Rho0 radius:                                                        1.200
       Maximum GTO radius used for PAW projector construction:            24.566

     GAPW Soft Basis Set                                        aug-cc-pVDZ_soft

       Number of orbital shell sets:                                           4
       Number of orbital shells:                                               5
       Number of primitive Cartesian functions:                                6
       Number of Cartesian basis functions:                                    9
       Number of spherical basis functions:                                    9
       Norm type:                                                              2

       Normalised Cartesian orbitals:

                        Set   Shell   Orbital            Exponent    Coefficient

                          1       1    1s                0.029740       0.051041

                          2       1    1s                1.962000       0.163020
                                                         0.444600       0.185545
                                                         0.122000       0.073744

                          2       2    2s                1.962000       0.000000
                                                         0.444600       0.000000
                                                         0.122000       0.147123

                          3       1    1px               0.141000       0.123158
                          3       1    1py               0.141000       0.123158
                          3       1    1pz               0.141000       0.123158

                          4       1    1px               0.727000       0.956881
                          4       1    1py               0.727000       0.956881
                          4       1    1pz               0.727000       0.956881

     AE Potential information for                                            ALL

       Description:                                       All-electron potential
                                          Krack, Parrinello, PCCP 2, 2105 (2000)

       Gaussian exponent of the core charge distribution:              12.500000
       Electronic configuration (s p d ...):                           1   0   0


 MOLECULE KIND INFORMATION


 All atoms are their own molecule, skipping detailed information


 TOTAL NUMBERS AND MAXIMUM NUMBERS

  Total number of            - Atomic kinds:                                   2
                             - Atoms:                                          2
                             - Shell sets:                                    10
                             - Shells:                                        14
                             - Primitive Cartesian functions:                 24
                             - Cartesian basis functions:                     34
                             - Spherical basis functions:                     32

  Maximum angular momentum of the orbital basis functions:                     2


 MODULE QUICKSTEP: ATOMIC COORDINATES IN ANGSTROM

   Atom Kind Element         X             Y             Z       Z(eff)     Mass
      1    1 N     7     15.518596     15.000000     15.000000   7.0000  14.0067
      2    2 H     1     14.481404     15.000000     15.000000   1.0000   1.0079



 SCF PARAMETERS         Density guess:                                    ATOMIC
                        --------------------------------------------------------
                        max_scf:                                             500
                        max_scf_history:                                       0
                        max_diis:                                              4
                        --------------------------------------------------------
                        eps_scf:                                        1.00E-06
                        eps_scf_history:                                0.00E+00
                        eps_diis:                                       1.00E-01
                        eps_eigval:                                     1.00E-05
                        --------------------------------------------------------
                        level_shift [a.u.]:                             0.000000
                        added MOs                                        28    0
                        --------------------------------------------------------
                        Mixing method:                            BROYDEN_MIXING
                                                charge density mixing in g-space
                        --------------------------------------------------------
                        No outer SCF

 PW_GRID| Information for grid number                                          1
 PW_GRID| Grid distributed over                                    24 processors
 PW_GRID| Real space group dimensions                                    24    1
 PW_GRID| the grid is blocked:                                                NO
 PW_GRID| Cutoff [a.u.]                                                    250.0
 PW_GRID| spherical cutoff:                                                   NO
 PW_GRID|   Bounds   1           -202     202                Points:         405
 PW_GRID|   Bounds   2           -202     202                Points:         405
 PW_GRID|   Bounds   3           -202     202                Points:         405
 PW_GRID| Volume element (a.u.^3)  0.2743E-02     Volume (a.u.^3)    182205.0337
 PW_GRID| Grid span                                                    FULLSPACE
 PW_GRID|   Distribution                         Average         Max         Min
 PW_GRID|   G-Vectors                          2767921.9     2768175     2767770
 PW_GRID|   G-Rays                                6834.4        6835        6834
 PW_GRID|   Real Space Points                  2767921.9     2788425     2624400

 PW_GRID| Information for grid number                                          2
 PW_GRID| Number of the reference grid                                         1
 PW_GRID| Grid distributed over                                    24 processors
 PW_GRID| Real space group dimensions                                    24    1
 PW_GRID| the grid is blocked:                                                NO
 PW_GRID| Cutoff [a.u.]                                                     83.3
 PW_GRID| spherical cutoff:                                                   NO
 PW_GRID|   Bounds   1           -120     119                Points:         240
 PW_GRID|   Bounds   2           -120     119                Points:         240
 PW_GRID|   Bounds   3           -120     119                Points:         240
 PW_GRID| Volume element (a.u.^3)  0.1318E-01     Volume (a.u.^3)    182205.0337
 PW_GRID| Grid span                                                    FULLSPACE
 PW_GRID|   Distribution                         Average         Max         Min
 PW_GRID|   G-Vectors                           576000.0      576240      575760
 PW_GRID|   G-Rays                                2400.0        2401        2399
 PW_GRID|   Real Space Points                   576000.0      576000      576000

 PW_GRID| Information for grid number                                          3
 PW_GRID| Number of the reference grid                                         1
 PW_GRID| Grid distributed over                                    24 processors
 PW_GRID| Real space group dimensions                                    24    1
 PW_GRID| the grid is blocked:                                                NO
 PW_GRID| Cutoff [a.u.]                                                     27.8
 PW_GRID| spherical cutoff:                                                   NO
 PW_GRID|   Bounds   1            -67      67                Points:         135
 PW_GRID|   Bounds   2            -67      67                Points:         135
 PW_GRID|   Bounds   3            -67      67                Points:         135
 PW_GRID| Volume element (a.u.^3)  0.7406E-01     Volume (a.u.^3)    182205.0337
 PW_GRID| Grid span                                                    FULLSPACE
 PW_GRID|   Distribution                         Average         Max         Min
 PW_GRID|   G-Vectors                           102515.6      102735      102330
 PW_GRID|   G-Rays                                 759.4         761         758
 PW_GRID|   Real Space Points                   102515.6      109350       91125

 PW_GRID| Information for grid number                                          4
 PW_GRID| Number of the reference grid                                         1
 PW_GRID| Grid distributed over                                    24 processors
 PW_GRID| Real space group dimensions                                    24    1
 PW_GRID| the grid is blocked:                                                NO
 PW_GRID| Cutoff [a.u.]                                                      9.3
 PW_GRID| spherical cutoff:                                                   NO
 PW_GRID|   Bounds   1            -40      39                Points:          80
 PW_GRID|   Bounds   2            -40      39                Points:          80
 PW_GRID|   Bounds   3            -40      39                Points:          80
 PW_GRID| Volume element (a.u.^3)  0.3559         Volume (a.u.^3)    182205.0337
 PW_GRID| Grid span                                                    FULLSPACE
 PW_GRID|   Distribution                         Average         Max         Min
 PW_GRID|   G-Vectors                            21333.3       21360       21280
 PW_GRID|   G-Rays                                 266.7         267         266
 PW_GRID|   Real Space Points                    21333.3       25600       19200

 POISSON| Solver                                                         WAVELET
 POISSON| Wavelet| Scaling function                                           40
 POISSON| Periodicity                                                       NONE

 RS_GRID| Information for grid number                                          1
 RS_GRID|   Bounds   1           -202     202                Points:         405
 RS_GRID|   Bounds   2           -202     202                Points:         405
 RS_GRID|   Bounds   3           -202     202                Points:         405
 RS_GRID| Real space distribution over                                  4 groups
 RS_GRID| Real space distribution along direction                              2
 RS_GRID| Border size                                                         31
 RS_GRID| Real space distribution over                                  6 groups
 RS_GRID| Real space distribution along direction                              3
 RS_GRID| Border size                                                         31
 RS_GRID|   Distribution                         Average         Max         Min
 RS_GRID|   Planes                                 163.2         164         163
 RS_GRID|   Distribution                         Average         Max         Min
 RS_GRID|   Planes                                 129.5         130         129

 RS_GRID| Information for grid number                                          2
 RS_GRID|   Bounds   1           -120     119                Points:         240
 RS_GRID|   Bounds   2           -120     119                Points:         240
 RS_GRID|   Bounds   3           -120     119                Points:         240
 RS_GRID| Real space distribution over                                  4 groups
 RS_GRID| Real space distribution along direction                              2
 RS_GRID| Border size                                                         33
 RS_GRID| Real space distribution over                                  6 groups
 RS_GRID| Real space distribution along direction                              3
 RS_GRID| Border size                                                         33
 RS_GRID|   Distribution                         Average         Max         Min
 RS_GRID|   Planes                                 126.0         126         126
 RS_GRID|   Distribution                         Average         Max         Min
 RS_GRID|   Planes                                 106.0         106         106

 RS_GRID| Information for grid number                                          3
 RS_GRID|   Bounds   1            -67      67                Points:         135
 RS_GRID|   Bounds   2            -67      67                Points:         135
 RS_GRID|   Bounds   3            -67      67                Points:         135
 RS_GRID| Real space fully replicated
 RS_GRID| Group size                                                           1

 RS_GRID| Information for grid number                                          4
 RS_GRID|   Bounds   1            -40      39                Points:          80
 RS_GRID|   Bounds   2            -40      39                Points:          80
 RS_GRID|   Bounds   3            -40      39                Points:          80
 RS_GRID| Real space fully replicated
 RS_GRID| Group size                                                           1

  HFX_INFO| Replica ID:                                                        1
  HFX_INFO| FRACTION:                                               0.2500000000
  HFX_INFO| Interaction Potential:                                       COULOMB
  HFX_INFO| EPS_SCHWARZ:                                                 1.0E-10
  HFX_INFO| EPS_SCHWARZ_FORCES                                           1.0E-08
  HFX_INFO| EPS_STORAGE_SCALING:                                         1.0E+00
  HFX_INFO| NBINS:                                                            64
  HFX_INFO| BLOCK_SIZE:                                                        1
  HFX_INFO| Number of periodic shells considered:                           NONE
  HFX_INFO| Number of periodic cells considered:                            NONE

 
 RI-RPA| using GPW style
 

 OVERLAP MATRIX CONDITION NUMBER
 1-Norm Condition Number (Estimate)
   CN : |A|*|A^-1|:  6.511E+000 *  5.092E+002   = 3.315E+003  Log(1-CN):  3.5205
 1-Norm and 2-Norm Condition Numbers using Diagonalization
   CN : |A|*|A^-1|:  6.511E+000 *  5.092E+002   = 3.315E+003  Log(1-CN):  3.5205
   CN : max/min ev:  4.709E+000 /  2.997E-003   = 1.572E+003  Log(2-CN):  3.1963

 Number of electrons:                                                          8
 Number of occupied orbitals:                                                  4
 Number of molecular orbitals:                                                32

 Number of orbital functions:                                                 32
 Number of independent orbital functions:                                     32

 Extrapolation method: initial_guess

 Atomic guess: The first density matrix is obtained in terms of atomic orbitals
               and electronic configurations assigned to each atomic kind

 Guess for atomic kind: N

 Electronic structure
    Total number of core electrons                                          0.00
    Total number of valence electrons                                       7.00
    Total number of electrons                                               7.00
    Multiplicity                                                   not specified
    S      2.00  2.00
    P      3.00


 *******************************************************************************
                  Iteration          Convergence                     Energy [au]
 *******************************************************************************
                          1        0.324015                     -53.962160635180
                          2        0.303793                     -53.968191480532
                          3        0.419977E-02                 -54.007027300491
                          4        0.499184E-03                 -54.007041130238
                          5        0.777606E-05                 -54.007041218366
                          6        0.741085E-07                 -54.007041218391

 Energy components [Hartree]           Total Energy ::          -54.007041218391
                                        Band Energy ::          -30.179796805617
                                     Kinetic Energy ::           54.022800604949
                                   Potential Energy ::         -108.029841823340
                                      Virial (-V/T) ::            1.999708282681
                                        Core Energy ::          -73.637352250568
                                          XC Energy ::           -6.149267785012
                                     Coulomb Energy ::           25.779578817189

 Orbital energies  State     L     Occupation   Energy[a.u.]          Energy[eV]

                       1     0          2.000     -14.015075         -381.369581
                       2     0          2.000      -0.677390          -18.432723

                       1     1          3.000      -0.264956           -7.209809


 Total Electron Density at R=0:                                       197.076012

 Guess for atomic kind: H

 Electronic structure
    Total number of core electrons                                          0.00
    Total number of valence electrons                                       1.00
    Total number of electrons                                               1.00
    Multiplicity                                                   not specified
    S      1.00


 *******************************************************************************
                  Iteration          Convergence                     Energy [au]
 *******************************************************************************
                          1        0.880988E-02                  -0.444778274653
                          2        0.791349E-03                  -0.444877834394
                          3        0.111042E-03                  -0.444880192149
                          4        0.306660E-07                  -0.444880212296

 Energy components [Hartree]           Total Energy ::           -0.444880212296
                                        Band Energy ::           -0.232361879729
                                     Kinetic Energy ::            0.420568354334
                                   Potential Energy ::           -0.865448566630
                                      Virial (-V/T) ::            2.057807150044
                                        Core Energy ::           -0.495477856147
                                          XC Energy ::           -0.232385335983
                                     Coulomb Energy ::            0.282982979834

 Orbital energies  State     L     Occupation   Energy[a.u.]          Energy[eV]

                       1     0          1.000      -0.232362           -6.322888


 Total Electron Density at R=0:                                         0.221399
 Re-scaling the density matrix to get the right number of electrons
                  # Electrons              Trace(P)               Scaling factor
                            8                 8.000                        1.000


 SCF WAVEFUNCTION OPTIMIZATION

  Step     Update method      Time    Convergence         Total energy    Change
  ------------------------------------------------------------------------------

  HFX_MEM_INFO| Est. max. program size before HFX [MiB]:                    2111
  HFX_MEM_INFO| Number of cart. primitive ERI's calculated:              2808441
  HFX_MEM_INFO| Number of sph. ERI's calculated:                          498370
  HFX_MEM_INFO| Number of sph. ERI's stored in-core:                      498370
  HFX_MEM_INFO| Number of sph. ERI's stored on disk:                           0
  HFX_MEM_INFO| Number of sph. ERI's calculated on the fly:                    0
  HFX_MEM_INFO| Total memory consumption ERI's RAM [MiB]:                      3
  HFX_MEM_INFO| Whereof max-vals [MiB]:                                        1
  HFX_MEM_INFO| Total compression factor ERI's RAM:                         1.75
  HFX_MEM_INFO| Total memory consumption ERI's disk [MiB]:                     0
  HFX_MEM_INFO| Total compression factor ERI's disk:                        0.00
  HFX_MEM_INFO| Size of density/Fock matrix [MiB]:                             0
  HFX_MEM_INFO| Size of buffers [MiB]:                                         0
  HFX_MEM_INFO| Est. max. program size after HFX  [MiB]:                    2621

     1 NoMix/Diag. 0.10E+00    6.6     1.10069567       -55.0066983455 -5.50E+01
     2 Broy./Diag. 0.10E+00    4.7     0.09538381       -54.6294161073  3.77E-01
     3 Broy./Diag. 0.10E+00    4.8     0.04269357       -54.5479935300  8.14E-02
     4 Broy./Diag. 0.10E+00    4.7     0.14692478       -54.8616768762 -3.14E-01
     5 Broy./Diag. 0.10E+00    4.8     0.02771483       -55.1709834560 -3.09E-01
     6 Broy./Diag. 0.10E+00    4.9     0.04374285       -55.1175236771  5.35E-02
     7 Broy./Diag. 0.10E+00    5.0     0.02715552       -55.0060778782  1.11E-01
     8 Broy./Diag. 0.10E+00    5.1     0.00100015       -54.9570247666  4.91E-02
     9 Broy./Diag. 0.10E+00    5.1     0.04432436       -55.0340730947 -7.70E-02
    10 Broy./Diag. 0.10E+00    5.2     0.00621719       -55.1272863355 -9.32E-02
    11 Broy./Diag. 0.10E+00    5.3     0.01017798       -55.1177812631  9.51E-03
    12 Broy./Diag. 0.10E+00    5.2     0.01214934       -55.0744680817  4.33E-02
    13 Broy./Diag. 0.10E+00    5.2     0.00151444       -55.0505398859  2.39E-02
    14 Broy./Diag. 0.10E+00    5.2     0.01308549       -55.0724598867 -2.19E-02
    15 Broy./Diag. 0.10E+00    5.2     0.00224108       -55.0975304487 -2.51E-02
    16 Broy./Diag. 0.10E+00    5.3     0.00202662       -55.0941159353  3.41E-03
    17 Broy./Diag. 0.10E+00    5.2     0.00395274       -55.0839895300  1.01E-02
    18 Broy./Diag. 0.10E+00    5.2     0.00142007       -55.0761973940  7.79E-03
    19 Broy./Diag. 0.10E+00    5.2     0.00069333       -55.0756635302  5.34E-04
    20 Broy./Diag. 0.10E+00    5.2     0.00144034       -55.0801505466 -4.49E-03
    21 Broy./Diag. 0.10E+00    5.2     0.00146103       -55.0828898918 -2.74E-03
    22 Broy./Diag. 0.10E+00    5.2     0.00074618       -55.0825879292  3.02E-04
    23 Broy./Diag. 0.10E+00    5.2     0.00040189       -55.0810258882  1.56E-03
    24 Broy./Diag. 0.10E+00    5.2     0.00034091       -55.0800725140  9.53E-04
    25 Broy./Diag. 0.10E+00    5.3     0.00012952       -55.0798500520  2.22E-04
    26 Broy./Diag. 0.10E+00    5.2     0.00020112       -55.0795546243  2.95E-04
    27 Broy./Diag. 0.10E+00    5.3     0.00019476       -55.0791873240  3.67E-04
    28 Broy./Diag. 0.10E+00    5.3     0.00043436       -55.0792136834 -2.64E-05
    29 Broy./Diag. 0.10E+00    5.2     0.00017584       -55.0793365835 -1.23E-04
    30 Broy./Diag. 0.10E+00    5.2     0.00005522       -55.0792755554  6.10E-05
    31 Broy./Diag. 0.10E+00    5.2     0.00013318       -55.0791660839  1.09E-04
    32 Broy./Diag. 0.10E+00    5.2     0.00063991       -55.0790953312  7.08E-05
    33 Broy./Diag. 0.10E+00    5.2     0.00013637       -55.0791291282 -3.38E-05
    34 Broy./Diag. 0.10E+00    5.4     0.00012269       -55.0790087633  1.20E-04
    35 Broy./Diag. 0.10E+00    5.2     0.00008923       -55.0789841314  2.46E-05
    36 Broy./Diag. 0.10E+00    5.2     0.00004127       -55.0790766002 -9.25E-05
    37 Broy./Diag. 0.10E+00    5.3     0.00002385       -55.0790659780  1.06E-05
    38 Broy./Diag. 0.10E+00    5.3     0.00007279       -55.0790423659  2.36E-05
    39 Broy./Diag. 0.10E+00    5.2     0.00026763       -55.0790238278  1.85E-05
    40 Broy./Diag. 0.10E+00    5.2     0.00003633       -55.0790173871  6.44E-06
    41 Broy./Diag. 0.10E+00    5.2     0.00001420       -55.0790524633 -3.51E-05
    42 Broy./Diag. 0.10E+00    5.3     0.00002321       -55.0790540840 -1.62E-06
    43 Broy./Diag. 0.10E+00    5.3     0.00002875       -55.0790299047  2.42E-05
    44 Broy./Diag. 0.10E+00    5.2     0.00005122       -55.0790330721 -3.17E-06
    45 Broy./Diag. 0.10E+00    5.2     0.00005866       -55.0790548538 -2.18E-05
    46 Broy./Diag. 0.10E+00    5.2     0.00003642       -55.0790598920 -5.04E-06
    47 Broy./Diag. 0.10E+00    5.2     0.00005417       -55.0790604942 -6.02E-07
    48 Broy./Diag. 0.10E+00    5.2     0.00009551       -55.0790632564 -2.76E-06
    49 Broy./Diag. 0.10E+00    5.3     0.00016114       -55.0790664627 -3.21E-06
    50 Broy./Diag. 0.10E+00    5.3     0.00027204       -55.0790662851  1.78E-07
    51 Broy./Diag. 0.10E+00    5.3     0.00045942       -55.0790653034  9.82E-07
    52 Broy./Diag. 0.10E+00    5.2     0.00077387       -55.0790577679  7.54E-06
    53 Broy./Diag. 0.10E+00    5.3     0.00130321       -55.0790442514  1.35E-05
    54 Broy./Diag. 0.10E+00    5.3     0.00219572       -55.0790282156  1.60E-05
    55 Broy./Diag. 0.10E+00    5.2     0.00371395       -55.0790076680  2.05E-05
    56 Broy./Diag. 0.10E+00    5.2     0.00621975       -55.0790091215 -1.45E-06
    57 Broy./Diag. 0.10E+00    5.2     0.01048799       -55.0790447100 -3.56E-05
    58 Broy./Diag. 0.10E+00    5.3     0.01767482       -55.0791181077 -7.34E-05
    59 Broy./Diag. 0.10E+00    5.3     0.02973442       -55.0791756385 -5.75E-05
    60 Broy./Diag. 0.10E+00    5.3     0.04976469       -55.0791488295  2.68E-05
    61 Broy./Diag. 0.10E+00    5.2     0.08206739       -55.0788326057  3.16E-04
    62 Broy./Diag. 0.10E+00    5.2     0.13015073       -55.0779024845  9.30E-04
    63 Broy./Diag. 0.10E+00    5.3     0.18661761       -55.0755984835  2.30E-03
    64 Broy./Diag. 0.10E+00    5.2     0.22172667       -55.0699223709  5.68E-03
    65 Broy./Diag. 0.10E+00    5.2     0.34294591       -55.0573445405  1.26E-02
    66 Broy./Diag. 0.10E+00    5.2     0.37409805       -55.0354622704  2.19E-02
    67 Broy./Diag. 0.10E+00    5.2     0.30398665       -55.0082184292  2.72E-02
    68 Broy./Diag. 0.10E+00    5.3     0.20186389       -54.9833885285  2.48E-02
    69 Broy./Diag. 0.10E+00    5.2     0.14885064       -54.9656557184  1.77E-02
    70 Broy./Diag. 0.10E+00    5.2     0.12281311       -54.9546888115  1.10E-02
    71 Broy./Diag. 0.10E+00    5.3     0.09437802       -54.9483527344  6.34E-03
    72 Broy./Diag. 0.10E+00    5.2     0.07005993       -54.9448614769  3.49E-03
    73 Broy./Diag. 0.10E+00    5.2     0.05133306       -54.9428610771  2.00E-03
    74 Broy./Diag. 0.10E+00    5.2     0.03952899       -54.9420417904  8.19E-04
    75 Broy./Diag. 0.10E+00    5.2     0.03406346       -54.9398769197  2.16E-03
    76 Broy./Diag. 0.10E+00    5.2     0.03010343       -54.9358518936  4.03E-03
    77 Broy./Diag. 0.10E+00    5.4     0.03719247       -54.9490639409 -1.32E-02
    78 Broy./Diag. 0.10E+00    5.3     0.09058725       -55.0499018307 -1.01E-01
    79 Broy./Diag. 0.10E+00    5.2     0.14873343       -55.2502883137 -2.00E-01
    80 Broy./Diag. 0.10E+00    5.2     0.16266153       -55.4514301903 -2.01E-01
    81 Broy./Diag. 0.10E+00    5.3     0.12815401       -55.2646083382  1.87E-01
    82 Broy./Diag. 0.10E+00    5.3     0.14551494       -54.9325247709  3.32E-01
    83 Broy./Diag. 0.10E+00    5.3     0.25109127       -55.0370461968 -1.05E-01
    84 Broy./Diag. 0.10E+00    5.2     0.17197021       -55.3497096399 -3.13E-01
    85 Broy./Diag. 0.10E+00    5.3     0.15103954       -55.5718098767 -2.22E-01
    86 Broy./Diag. 0.10E+00    5.3     0.20387322       -55.5550940928  1.67E-02
    87 Broy./Diag. 0.10E+00    5.3     0.14003843       -55.3843280637  1.71E-01
    88 Broy./Diag. 0.10E+00    5.2     0.20649663       -55.3233006363  6.10E-02
    89 Broy./Diag. 0.10E+00    5.3     0.09099940       -55.2109990237  1.12E-01
    90 Broy./Diag. 0.10E+00    5.2     0.06190438       -55.0747332275  1.36E-01
    91 Broy./Diag. 0.10E+00    5.2     0.07682899       -55.1199870184 -4.53E-02
    92 Broy./Diag. 0.10E+00    5.2     0.13029729       -55.1541085368 -3.41E-02
    93 Broy./Diag. 0.10E+00    5.2     0.38517176       -55.1279206703  2.62E-02
    94 Broy./Diag. 0.10E+00    5.4     0.37301778       -55.2386833629 -1.11E-01
    95 Broy./Diag. 0.10E+00    5.2     0.19863915       -55.3079894983 -6.93E-02
    96 Broy./Diag. 0.10E+00    5.2     0.21184127       -55.3506206585 -4.26E-02
    97 Broy./Diag. 0.10E+00    5.2     0.40018150       -55.3486821163  1.94E-03
    98 Broy./Diag. 0.10E+00    5.2     0.28193194       -55.3714866138 -2.28E-02
    99 Broy./Diag. 0.10E+00    5.4     0.05744156       -55.3285333483  4.30E-02
   100 Broy./Diag. 0.10E+00    5.3     0.04719061       -55.3606550761 -3.21E-02
   101 Broy./Diag. 0.10E+00    5.2     0.03522524       -55.4031789892 -4.25E-02
   102 Broy./Diag. 0.10E+00    5.2     0.11018087       -55.3727297639  3.04E-02
   103 Broy./Diag. 0.10E+00    5.3     0.05658806       -55.2846126218  8.81E-02
   104 Broy./Diag. 0.10E+00    5.3     0.02116084       -55.2127511491  7.19E-02
   105 Broy./Diag. 0.10E+00    5.3     0.08732652       -55.1009685297  1.12E-01
   106 Broy./Diag. 0.10E+00    5.3     0.13534451       -55.0676621569  3.33E-02
   107 Broy./Diag. 0.10E+00    5.2     0.22716995       -55.0645536683  3.11E-03
   108 Broy./Diag. 0.10E+00    5.2     0.35785393       -55.0415718882  2.30E-02
   109 Broy./Diag. 0.10E+00    5.2     0.31075555       -55.0847881181 -4.32E-02
   110 Broy./Diag. 0.10E+00    5.3     0.14807043       -55.1128405431 -2.81E-02
   111 Broy./Diag. 0.10E+00    5.3     0.10192190       -55.1325060424 -1.97E-02
   112 Broy./Diag. 0.10E+00    5.2     0.12529164       -55.1381571452 -5.65E-03
   113 Broy./Diag. 0.10E+00    5.2     0.13862950       -55.1270404504  1.11E-02
   114 Broy./Diag. 0.10E+00    5.2     0.12367928       -55.1107864810  1.63E-02
   115 Broy./Diag. 0.10E+00    5.2     0.11804890       -55.1138205096 -3.03E-03
   116 Broy./Diag. 0.10E+00    5.2     0.10714323       -55.1288363330 -1.50E-02
   117 Broy./Diag. 0.10E+00    5.3     0.13927740       -55.1544626743 -2.56E-02
   118 Broy./Diag. 0.10E+00    5.3     0.19899944       -55.1640827362 -9.62E-03
   119 Broy./Diag. 0.10E+00    5.3     0.20882204       -55.1662423149 -2.16E-03
   120 Broy./Diag. 0.10E+00    5.3     0.19473023       -55.1481859776  1.81E-02
   121 Broy./Diag. 0.10E+00    5.2     0.26574964       -55.1536451893 -5.46E-03
   122 Broy./Diag. 0.10E+00    5.3     0.26346347       -55.1503540045  3.29E-03
   123 Broy./Diag. 0.10E+00    5.3     0.21819040       -55.1214537211  2.89E-02
   124 Broy./Diag. 0.10E+00    5.2     0.17846716       -55.0963586416  2.51E-02
   125 Broy./Diag. 0.10E+00    5.2     0.14422365       -55.0851451559  1.12E-02
   126 Broy./Diag. 0.10E+00    5.2     0.11790822       -55.0807272749  4.42E-03
   127 Broy./Diag. 0.10E+00    5.2     0.08207385       -55.0726928091  8.03E-03
   128 Broy./Diag. 0.10E+00    5.4     0.03671553       -55.1289526353 -5.63E-02
   129 Broy./Diag. 0.10E+00    5.2     0.09662515       -55.0136150709  1.15E-01
   130 Broy./Diag. 0.10E+00    5.2     0.17067892       -54.9999236049  1.37E-02
   131 Broy./Diag. 0.10E+00    5.2     0.30740446       -54.9773154911  2.26E-02
   132 Broy./Diag. 0.10E+00    5.3     0.21059612       -55.1338188064 -1.57E-01
   133 Broy./Diag. 0.10E+00    5.2     0.12772115       -55.0163049006  1.18E-01
   134 Broy./Diag. 0.10E+00    5.3     0.05826035       -55.0231782442 -6.87E-03
   135 Broy./Diag. 0.10E+00    5.2     0.03546049       -55.0644695658 -4.13E-02
   136 Broy./Diag. 0.10E+00    5.2     0.02643183       -55.0945444917 -3.01E-02
   137 Broy./Diag. 0.10E+00    5.2     0.01042880       -55.1097227394 -1.52E-02
   138 Broy./Diag. 0.10E+00    5.2     0.00371283       -55.1141847798 -4.46E-03
   139 Broy./Diag. 0.10E+00    5.3     0.01484234       -55.1137583011  4.26E-04
   140 Broy./Diag. 0.10E+00    5.2     0.00217296       -55.1075142878  6.24E-03
   141 Broy./Diag. 0.10E+00    5.2     0.00536455       -55.0922694433  1.52E-02
   142 Broy./Diag. 0.10E+00    5.2     0.00803045       -55.0778187824  1.45E-02
   143 Broy./Diag. 0.10E+00    5.2     0.00689596       -55.0756429114  2.18E-03
   144 Broy./Diag. 0.10E+00    5.2     0.00338320       -55.0860190642 -1.04E-02
   145 Broy./Diag. 0.10E+00    5.3     0.00637423       -55.0908810480 -4.86E-03
   146 Broy./Diag. 0.10E+00    5.3     0.01023535       -55.0886031703  2.28E-03
   147 Broy./Diag. 0.10E+00    5.2     0.01687172       -55.0874109460  1.19E-03
   148 Broy./Diag. 0.10E+00    5.3     0.02770541       -55.0871967635  2.14E-04
   149 Broy./Diag. 0.10E+00    5.2     0.04581120       -55.0872626936 -6.59E-05
   150 Broy./Diag. 0.10E+00    5.2     0.07173976       -55.0867427868  5.20E-04
   151 Broy./Diag. 0.10E+00    5.3     0.11267727       -55.0850286927  1.71E-03
   152 Broy./Diag. 0.10E+00    5.2     0.20298031       -55.0820657849  2.96E-03
   153 Broy./Diag. 0.10E+00    5.2     0.31651993       -55.0754111862  6.65E-03
   154 Broy./Diag. 0.10E+00    5.2     0.37217185       -55.0612298032  1.42E-02
   155 Broy./Diag. 0.10E+00    5.2     0.31307333       -55.0387256606  2.25E-02
   156 Broy./Diag. 0.10E+00    5.3     0.23774086       -55.0119785701  2.67E-02
   157 Broy./Diag. 0.10E+00    5.3     0.22009242       -54.9889511580  2.30E-02
   158 Broy./Diag. 0.10E+00    5.2     0.17411779       -54.9732005492  1.58E-02
   159 Broy./Diag. 0.10E+00    5.2     0.12824545       -54.9634586688  9.74E-03
   160 Broy./Diag. 0.10E+00    5.2     0.09096027       -54.9573228443  6.14E-03
   161 Broy./Diag. 0.10E+00    5.2     0.06342261       -54.9533460237  3.98E-03
   162 Broy./Diag. 0.10E+00    5.3     0.03946870       -54.9495683525  3.78E-03
   163 Broy./Diag. 0.10E+00    5.2     0.01857583       -54.9429512405  6.62E-03
   164 Broy./Diag. 0.10E+00    5.2     0.00719324       -54.9174101677  2.55E-02
   165 Broy./Diag. 0.10E+00    5.2     0.08261347       -54.9707511463 -5.33E-02
   166 Broy./Diag. 0.10E+00    5.2     0.18907193       -55.0377726659 -6.70E-02
   167 Broy./Diag. 0.10E+00    5.2     0.29114337       -55.0967684727 -5.90E-02
   168 Broy./Diag. 0.10E+00    5.2     0.26288600       -55.1300508565 -3.33E-02
   169 Broy./Diag. 0.10E+00    5.2     0.20315349       -55.0293040166  1.01E-01
   170 Broy./Diag. 0.10E+00    5.3     0.13364008       -54.9756048960  5.37E-02
   171 Broy./Diag. 0.10E+00    5.3     0.20720496       -55.0879353770 -1.12E-01
   172 Broy./Diag. 0.10E+00    5.2     0.26049999       -54.9401417541  1.48E-01
   173 Broy./Diag. 0.10E+00    5.2     0.29454036       -54.8343656756  1.06E-01
   174 Broy./Diag. 0.10E+00    5.3     0.19467962       -54.8070678177  2.73E-02
   175 Broy./Diag. 0.10E+00    5.3     0.14248893       -54.8027201413  4.35E-03
   176 Broy./Diag. 0.10E+00    5.2     0.13896773       -54.7895855225  1.31E-02
   177 Broy./Diag. 0.10E+00    5.2     0.21359587       -54.7218417062  6.77E-02
   178 Broy./Diag. 0.10E+00    5.2     0.03744908       -54.6725845993  4.93E-02
   179 Broy./Diag. 0.10E+00    5.3     0.20164750       -54.6455492233  2.70E-02
   180 Broy./Diag. 0.10E+00    5.3     0.10511868       -54.7065823929 -6.10E-02
   181 Broy./Diag. 0.10E+00    5.2     0.16181564       -55.1215421355 -4.15E-01
   182 Broy./Diag. 0.10E+00    5.3     0.13848702       -55.1284873860 -6.95E-03
   183 Broy./Diag. 0.10E+00    5.2     0.56054167       -55.1108948397  1.76E-02
   184 Broy./Diag. 0.10E+00    5.2     0.32634562       -55.2706571441 -1.60E-01
   185 Broy./Diag. 0.10E+00    5.3     0.07436835       -55.1467000539  1.24E-01
   186 Broy./Diag. 0.10E+00    5.2     0.04747257       -55.0830365893  6.37E-02
   187 Broy./Diag. 0.10E+00    5.2     0.10915796       -55.0426423843  4.04E-02
   188 Broy./Diag. 0.10E+00    5.2     0.03457728       -55.0122226549  3.04E-02
   189 Broy./Diag. 0.10E+00    5.2     0.24824898       -54.8628991136  1.49E-01
   190 Broy./Diag. 0.10E+00    5.2     0.13223200       -54.8592941543  3.60E-03
   191 Broy./Diag. 0.10E+00    5.3     0.21300642       -54.8908258895 -3.15E-02
   192 Broy./Diag. 0.10E+00    5.2     0.20186661       -54.9765574273 -8.57E-02
   193 Broy./Diag. 0.10E+00    5.2     0.06338862       -55.0066249785 -3.01E-02
   194 Broy./Diag. 0.10E+00    5.2     0.08474978       -55.0080998015 -1.47E-03
   195 Broy./Diag. 0.10E+00    5.3     0.02432357       -55.0555169588 -4.74E-02
   196 Broy./Diag. 0.10E+00    5.2     0.00822618       -55.0946143072 -3.91E-02
   197 Broy./Diag. 0.10E+00    5.3     0.02679840       -55.0801992229  1.44E-02
   198 Broy./Diag. 0.10E+00    5.4     0.10602238       -55.0875590036 -7.36E-03
   199 Broy./Diag. 0.10E+00    5.2     0.10729883       -55.1334731982 -4.59E-02
   200 Broy./Diag. 0.10E+00    5.2     0.24503962       -55.1321188304  1.35E-03
   201 Broy./Diag. 0.10E+00    5.2     0.38167220       -55.1176220089  1.45E-02
   202 Broy./Diag. 0.10E+00    5.3     0.36641370       -55.0853988520  3.22E-02
   203 Broy./Diag. 0.10E+00    5.3     0.24485898       -55.0501645328  3.52E-02
   204 Broy./Diag. 0.10E+00    5.2     0.19430424       -55.0146230377  3.55E-02
   205 Broy./Diag. 0.10E+00    5.2     0.14784514       -55.0033846291  1.12E-02
   206 Broy./Diag. 0.10E+00    5.3     0.10748309       -54.9992168278  4.17E-03
   207 Broy./Diag. 0.10E+00    5.2     0.07089400       -54.9945396558  4.68E-03
   208 Broy./Diag. 0.10E+00    5.2     0.17859368       -55.0076035330 -1.31E-02
   209 Broy./Diag. 0.10E+00    5.3     0.25557263       -54.9917058730  1.59E-02
   210 Broy./Diag. 0.10E+00    5.2     0.23304386       -54.9699509327  2.18E-02
   211 Broy./Diag. 0.10E+00    5.2     0.15610875       -54.9554240479  1.45E-02
   212 Broy./Diag. 0.10E+00    5.2     0.13781553       -54.9139220842  4.15E-02
   213 Broy./Diag. 0.10E+00    5.2     0.15385666       -54.8833168246  3.06E-02
   214 Broy./Diag. 0.10E+00    5.3     0.10526341       -54.9670889714 -8.38E-02
   215 Broy./Diag. 0.10E+00    5.2     0.11244731       -55.0046038089 -3.75E-02
   216 Broy./Diag. 0.10E+00    5.2     0.19271014       -55.0989247567 -9.43E-02
   217 Broy./Diag. 0.10E+00    5.2     0.13265087       -55.2408594630 -1.42E-01
   218 Broy./Diag. 0.10E+00    5.2     0.33924228       -55.1471709383  9.37E-02
   219 Broy./Diag. 0.10E+00    5.3     0.39290339       -55.2067180256 -5.95E-02
   220 Broy./Diag. 0.10E+00    5.3     0.09526730       -55.2301712557 -2.35E-02
   221 Broy./Diag. 0.10E+00    5.2     0.28473958       -55.1464927956  8.37E-02
   222 Broy./Diag. 0.10E+00    5.3     0.33430268       -55.1454277702  1.07E-03
   223 Broy./Diag. 0.10E+00    5.2     0.24810530       -55.1737235919 -2.83E-02
   224 Broy./Diag. 0.10E+00    5.2     0.31229567       -55.1465094003  2.72E-02
   225 Broy./Diag. 0.10E+00    5.2     0.16348948       -55.1568939900 -1.04E-02
   226 Broy./Diag. 0.10E+00    5.3     0.29585736       -55.0631556477  9.37E-02
   227 Broy./Diag. 0.10E+00    5.2     0.13406941       -55.1622350712 -9.91E-02
   228 Broy./Diag. 0.10E+00    5.2     0.06995639       -55.1593757370  2.86E-03
   229 Broy./Diag. 0.10E+00    5.2     0.02914208       -55.1790198420 -1.96E-02
   230 Broy./Diag. 0.10E+00    5.2     0.13605850       -55.1204804014  5.85E-02
   231 Broy./Diag. 0.10E+00    5.3     0.29015210       -55.1529584251 -3.25E-02
   232 Broy./Diag. 0.10E+00    5.2     0.41239241       -55.2343842215 -8.14E-02
   233 Broy./Diag. 0.10E+00    5.2     0.39332314       -55.1832316773  5.12E-02
   234 Broy./Diag. 0.10E+00    5.2     0.27324910       -55.1825650956  6.67E-04
   235 Broy./Diag. 0.10E+00    5.2     0.11445945       -55.1236049626  5.90E-02
   236 Broy./Diag. 0.10E+00    5.2     0.01152725       -55.0978035611  2.58E-02
   237 Broy./Diag. 0.10E+00    5.3     0.01017094       -55.0988867724 -1.08E-03
   238 Broy./Diag. 0.10E+00    5.2     0.00617805       -55.1167650267 -1.79E-02
   239 Broy./Diag. 0.10E+00    5.2     0.01810289       -55.1151031689  1.66E-03
   240 Broy./Diag. 0.10E+00    5.2     0.00638143       -55.0924132116  2.27E-02
   241 Broy./Diag. 0.10E+00    5.2     0.31715674       -55.0944744731 -2.06E-03
   242 Broy./Diag. 0.10E+00    5.4     0.36506583       -55.2359642160 -1.41E-01
   243 Broy./Diag. 0.10E+00    5.2     0.41359036       -55.3091213913 -7.32E-02
   244 Broy./Diag. 0.10E+00    5.2     0.18192293       -55.2181890974  9.09E-02
   245 Broy./Diag. 0.10E+00    5.3     0.37656405       -55.1733143157  4.49E-02
   246 Broy./Diag. 0.10E+00    5.2     0.35580307       -55.1737068940 -3.93E-04
[...]
   418 Broy./Diag. 0.10E+00    5.2     0.15069428       -54.8511844125  3.14E-02
   419 Broy./Diag. 0.10E+00    5.2     0.14181140       -54.7715618489  7.96E-02
   420 Broy./Diag. 0.10E+00    5.4     0.14945000       -54.9594233508 -1.88E-01
   421 Broy./Diag. 0.10E+00    5.2     0.25071747       -55.3966325192 -4.37E-01
   422 Broy./Diag. 0.10E+00    5.2     0.13429464       -55.3105769390  8.61E-02
   423 Broy./Diag. 0.10E+00    5.2     0.05988753       -55.2767041541  3.39E-02
   424 Broy./Diag. 0.10E+00    5.2     0.04084593       -55.2724666261  4.24E-03
   425 Broy./Diag. 0.10E+00    5.2     0.01740424       -55.2457463092  2.67E-02
   426 Broy./Diag. 0.10E+00    5.2     0.00493377       -55.2136002174  3.21E-02
   427 Broy./Diag. 0.10E+00    5.2     0.01317147       -55.1820669832  3.15E-02
   428 Broy./Diag. 0.10E+00    5.3     0.03523874       -55.1171578128  6.49E-02
   429 Broy./Diag. 0.10E+00    5.2     0.02492387       -55.0798839707  3.73E-02
   430 Broy./Diag. 0.10E+00    5.2     0.04172787       -55.0724353667  7.45E-03
   431 Broy./Diag. 0.10E+00    5.3     0.08959417       -55.0728913334 -4.56E-04
   432 Broy./Diag. 0.10E+00    5.3     0.14286988       -55.0726233968  2.68E-04
   433 Broy./Diag. 0.10E+00    5.2     0.24093195       -55.0635831834  9.04E-03
   434 Broy./Diag. 0.10E+00    5.2     0.31688165       -55.0579729830  5.61E-03
   435 Broy./Diag. 0.10E+00    5.2     0.33922335       -55.0425927472  1.54E-02
   436 Broy./Diag. 0.10E+00    5.2     0.26387243       -55.0134270610  2.92E-02
   437 Broy./Diag. 0.10E+00    5.2     0.27519368       -54.9839468749  2.95E-02
   438 Broy./Diag. 0.10E+00    5.3     0.23054140       -54.9616649759  2.23E-02
   439 Broy./Diag. 0.10E+00    5.3     0.16644237       -54.9474824108  1.42E-02
   440 Broy./Diag. 0.10E+00    5.2     0.11296250       -54.9391644767  8.32E-03
   441 Broy./Diag. 0.10E+00    5.3     0.09153189       -54.9329292396  6.24E-03
   442 Broy./Diag. 0.10E+00    5.2     0.08940680       -54.9168646824  1.61E-02
   443 Broy./Diag. 0.10E+00    5.2     0.11237533       -54.8989547636  1.79E-02
   444 Broy./Diag. 0.10E+00    5.2     0.14120000       -54.8855933319  1.34E-02
   445 Broy./Diag. 0.10E+00    5.2     0.21048617       -54.8828431216  2.75E-03
   446 Broy./Diag. 0.10E+00    5.2     0.22474845       -54.9185240674 -3.57E-02
   447 Broy./Diag. 0.10E+00    5.2     0.15314682       -54.9931990021 -7.47E-02
   448 Broy./Diag. 0.10E+00    5.3     0.07342699       -55.0876492140 -9.45E-02
   449 Broy./Diag. 0.10E+00    5.2     0.05940153       -55.2011698969 -1.14E-01
   450 Broy./Diag. 0.10E+00    5.2     0.09838231       -55.3189274840 -1.18E-01
   451 Broy./Diag. 0.10E+00    5.3     0.26842719       -55.4060965843 -8.72E-02
   452 Broy./Diag. 0.10E+00    5.2     0.29039642       -55.4614916225 -5.54E-02
   453 Broy./Diag. 0.10E+00    5.2     0.02801720       -55.4062103651  5.53E-02
   454 Broy./Diag. 0.10E+00    5.3     0.23895955       -55.2822719276  1.24E-01
   455 Broy./Diag. 0.10E+00    5.3     0.43080782       -55.2290879898  5.32E-02
   456 Broy./Diag. 0.10E+00    5.3     0.40188485       -55.2148770635  1.42E-02
   457 Broy./Diag. 0.10E+00    5.2     0.23156328       -55.1976338079  1.72E-02
   458 Broy./Diag. 0.10E+00    5.2     0.10629384       -55.1997071878 -2.07E-03
   459 Broy./Diag. 0.10E+00    5.2     0.07862467       -55.2253672239 -2.57E-02
   460 Broy./Diag. 0.10E+00    5.3     0.22982627       -55.2604953414 -3.51E-02
   461 Broy./Diag. 0.10E+00    5.2     0.45901485       -55.2709132168 -1.04E-02
   462 Broy./Diag. 0.10E+00    5.3     0.44563018       -55.3022688356 -3.14E-02
   463 Broy./Diag. 0.10E+00    5.2     0.24150260       -55.2860754100  1.62E-02
   464 Broy./Diag. 0.10E+00    5.2     0.12551022       -55.2111355032  7.49E-02
   465 Broy./Diag. 0.10E+00    5.2     0.06563668       -55.1839575383  2.72E-02
   466 Broy./Diag. 0.10E+00    5.2     0.10579250       -55.2157491317 -3.18E-02
   467 Broy./Diag. 0.10E+00    5.2     0.16860665       -55.2174800023 -1.73E-03
   468 Broy./Diag. 0.10E+00    5.2     0.23439254       -55.2006226758  1.69E-02
   469 Broy./Diag. 0.10E+00    5.2     0.29771028       -55.1801100989  2.05E-02
   470 Broy./Diag. 0.10E+00    5.2     0.29151464       -55.1642343604  1.59E-02
   471 Broy./Diag. 0.10E+00    5.3     0.31467376       -55.1395226782  2.47E-02
   472 Broy./Diag. 0.10E+00    5.2     0.23961105       -55.1243810131  1.51E-02
   473 Broy./Diag. 0.10E+00    5.2     0.09300177       -55.1178475109  6.53E-03
   474 Broy./Diag. 0.10E+00    5.3     0.02416213       -55.1180238904 -1.76E-04
   475 Broy./Diag. 0.10E+00    5.2     0.03125013       -55.1149016802  3.12E-03
   476 Broy./Diag. 0.10E+00    5.2     0.10801060       -55.0832804715  3.16E-02
   477 Broy./Diag. 0.10E+00    5.2     0.23048953       -54.9938269215  8.95E-02
   478 Broy./Diag. 0.10E+00    5.2     0.17960253       -54.9576183076  3.62E-02
   479 Broy./Diag. 0.10E+00    5.3     0.12757304       -55.0000534125 -4.24E-02
   480 Broy./Diag. 0.10E+00    5.3     0.08247415       -55.0617974199 -6.17E-02
   481 Broy./Diag. 0.10E+00    5.2     0.11121872       -55.1515100926 -8.97E-02
   482 Broy./Diag. 0.10E+00    5.2     0.10085846       -55.2295530355 -7.80E-02
   483 Broy./Diag. 0.10E+00    5.3     0.10305121       -55.1457691252  8.38E-02
   484 Broy./Diag. 0.10E+00    5.2     0.14610725       -55.0599464538  8.58E-02
   485 Broy./Diag. 0.10E+00    5.4     0.21443736       -55.0411084678  1.88E-02
   486 Broy./Diag. 0.10E+00    5.3     0.32657356       -55.0293159460  1.18E-02
   487 Broy./Diag. 0.10E+00    5.2     0.37908305       -54.9943578046  3.50E-02
   488 Broy./Diag. 0.10E+00    5.3     0.27369805       -54.9543358062  4.00E-02
   489 Broy./Diag. 0.10E+00    5.2     0.24227797       -54.9301038146  2.42E-02
   490 Broy./Diag. 0.10E+00    5.2     0.21521911       -54.9106862157  1.94E-02
   491 Broy./Diag. 0.10E+00    5.2     0.20156726       -54.9191672675 -8.48E-03
   492 Broy./Diag. 0.10E+00    5.2     0.14464788       -54.9338850420 -1.47E-02
   493 Broy./Diag. 0.10E+00    5.2     0.10038120       -54.9288862803  5.00E-03
   494 Broy./Diag. 0.10E+00    5.2     0.10569204       -54.9312165948 -2.33E-03
   495 Broy./Diag. 0.10E+00    5.2     0.12433808       -54.9414095743 -1.02E-02
   496 Broy./Diag. 0.10E+00    5.2     0.12501705       -54.9410907907  3.19E-04
   497 Broy./Diag. 0.10E+00    5.2     0.17246314       -54.9335552415  7.54E-03
   498 Broy./Diag. 0.10E+00    5.2     0.20687674       -54.9397954282 -6.24E-03
   499 Broy./Diag. 0.10E+00    5.2     0.18790892       -54.9631003409 -2.33E-02
   500 Broy./Diag. 0.10E+00    5.3     0.11283266       -55.0087238877 -4.56E-02

  Leaving inner SCF loop after reaching   500 steps.


  Electronic density on regular grids:         -6.1329864369        1.8670135631
  Core density on regular grids:                8.0000000000       -0.0000000000
  Hard and soft densities (Lebedev):          -16.0675701584      -14.1988350956
  Total Rho_soft + Rho1_hard - Rho1_soft       -8.0017214997
  Total charge density (r-space):              -0.0017214997
  Total Rho_soft + Rho0_soft (g-space):        -0.0017215091

  Overlap energy of the core charge distribution:               0.00000008866015
  Self energy of the core charge distribution:                -49.21005070205399
  Core Hamiltonian energy:                                     -7.10533617093567
  Hartree energy:                                              17.37400766806841
  Exchange-correlation energy:                                 -2.16343229623475
  Hartree-Fock Exchange energy:                                -1.72128749059285

  GAPW| Exc from hard and soft atomic rho1:                    -3.17669875018010
  GAPW| local Eh = 1 center integrals:                         -9.00592623440056

  Total energy:                                               -55.00872388766937

 *******************************************************************************
 *   ___                                                                       *
 *  /   \                                                                      *
 * [ABORT]                                                                     *
 *  \___/     SCF run NOT converged. To continue the calculation regardless,   *
 *    |             please set the keyword IGNORE_CONVERGENCE_FAILURE.         *
 *  O/|                                                                        *
 * /| |                                                                        *
 * / \                                                            qs_scf.F:611 *
 *******************************************************************************


 ===== Routine Calling Stack ===== 

            3 scf_env_do_scf
            2 qs_energies
            1 CP2K

 *******************************************************************************
 *   ___                                                                       *
 *  /   \                                                                      *
 * [ABORT]                                                                     *
 *  \___/     SCF run NOT converged. To continue the calculation regardless,   *
 *    |             please set the keyword IGNORE_CONVERGENCE_FAILURE.         *
 *  O/|                                                                        *
 * /| |                                                                        *
 * / \                                                            qs_scf.F:611 *
 *******************************************************************************


 ===== Routine Calling Stack ===== 

            3 scf_env_do_scf
            2 qs_energies
            1 CP2K

 *******************************************************************************
 *   ___                                                                       *
 *  /   \                                                                      *
 * [ABORT]                                                                     *
 *  \___/     SCF run NOT converged. To continue the calculation regardless,   *
 *    |             please set the keyword IGNORE_CONVERGENCE_FAILURE.         *
 *  O/|                                                                        *
 * /| |                                                                        *
 * / \                                                            qs_scf.F:611 *
 *******************************************************************************


 ===== Routine Calling Stack ===== 

            3 scf_env_do_scf
            2 qs_energies
            1 CP2K

 *******************************************************************************
 *   ___                                                                       *
 *  /   \                                                                      *
 * [ABORT]                                                                     *
 *  \___/     SCF run NOT converged. To continue the calculation regardless,   *
 *    |             please set the keyword IGNORE_CONVERGENCE_FAILURE.         *
 *  O/|                                                                        *
 * /| |                                                                        *
 * / \                                                            qs_scf.F:611 *
 *******************************************************************************


 ===== Routine Calling Stack ===== 

            3 scf_env_do_scf
            2 qs_energies
            1 CP2K

 *******************************************************************************
 *   ___                                                                       *
 *  /   \                                                                      *
 * [ABORT]                                                                     *
 *  \___/     SCF run NOT converged. To continue the calculation regardless,   *
 *    |             please set the keyword IGNORE_CONVERGENCE_FAILURE.         *
 *  O/|                                                                        *
 * /| |                                                                        *
 * / \                                                            qs_scf.F:611 *
 *******************************************************************************


 ===== Routine Calling Stack ===== 

            3 scf_env_do_scf
            2 qs_energies
            1 CP2K

 *******************************************************************************
 *   ___                                                                       *
 *  /   \                                                                      *
 * [ABORT]                                                                     *
 *  \___/     SCF run NOT converged. To continue the calculation regardless,   *
 *    |             please set the keyword IGNORE_CONVERGENCE_FAILURE.         *
 *  O/|                                                                        *
 * /| |                                                                        *
 * / \                                                            qs_scf.F:611 *
 *******************************************************************************


 ===== Routine Calling Stack ===== 

            3 scf_env_do_scf
            2 qs_energies
            1 CP2K

 *******************************************************************************
 *   ___                                                                       *
 *  /   \                                                                      *
 * [ABORT]                                                                     *
 *  \___/     SCF run NOT converged. To continue the calculation regardless,   *
 *    |             please set the keyword IGNORE_CONVERGENCE_FAILURE.         *
 *  O/|                                                                        *
 * /| |                                                                        *
 * / \                                                            qs_scf.F:611 *
 *******************************************************************************


 ===== Routine Calling Stack ===== 

            3 scf_env_do_scf
            2 qs_energies
            1 CP2K

 *******************************************************************************
 *   ___                                                                       *
 *  /   \                                                                      *
 * [ABORT]                                                                     *
 *  \___/     SCF run NOT converged. To continue the calculation regardless,   *
 *    |             please set the keyword IGNORE_CONVERGENCE_FAILURE.         *
 *  O/|                                                                        *
 * /| |                                                                        *
 * / \                                                            qs_scf.F:611 *
 *******************************************************************************


 ===== Routine Calling Stack ===== 

            3 scf_env_do_scf
            2 qs_energies
            1 CP2K

 *******************************************************************************
 *   ___                                                                       *
 *  /   \                                                                      *
 * [ABORT]                                                                     *
 *  \___/     SCF run NOT converged. To continue the calculation regardless,   *
 *    |             please set the keyword IGNORE_CONVERGENCE_FAILURE.         *
 *  O/|                                                                        *
 * /| |                                                                        *
 * / \                                                            qs_scf.F:611 *
 *******************************************************************************


 ===== Routine Calling Stack ===== 

            3 scf_env_do_scf
            2 qs_energies
            1 CP2K

 *******************************************************************************
 *   ___                                                                       *
 *  /   \                                                                      *
 * [ABORT]                                                                     *
 *  \___/     SCF run NOT converged. To continue the calculation regardless,   *
 *    |             please set the keyword IGNORE_CONVERGENCE_FAILURE.         *
 *  O/|                                                                        *
 * /| |                                                                        *
 * / \                                                            qs_scf.F:611 *
 *******************************************************************************


 ===== Routine Calling Stack ===== 

            3 scf_env_do_scf
            2 qs_energies
            1 CP2K

 *******************************************************************************
 *   ___                                                                       *
 *  /   \                                                                      *
 * [ABORT]                                                                     *
 *  \___/     SCF run NOT converged. To continue the calculation regardless,   *
 *    |             please set the keyword IGNORE_CONVERGENCE_FAILURE.         *
 *  O/|                                                                        *
 * /| |                                                                        *
 * / \                                                            qs_scf.F:611 *
 *******************************************************************************


 ===== Routine Calling Stack ===== 

            3 scf_env_do_scf
            2 qs_energies
            1 CP2K

 *******************************************************************************
 *   ___                                                                       *
 *  /   \                                                                      *
 * [ABORT]                                                                     *
 *  \___/     SCF run NOT converged. To continue the calculation regardless,   *
 *    |             please set the keyword IGNORE_CONVERGENCE_FAILURE.         *
 *  O/|                                                                        *
 * /| |                                                                        *
 * / \                                                            qs_scf.F:611 *
 *******************************************************************************


 ===== Routine Calling Stack ===== 

            3 scf_env_do_scf
            2 qs_energies
            1 CP2K

 *******************************************************************************
 *   ___                                                                       *
 *  /   \                                                                      *
 * [ABORT]                                                                     *
 *  \___/     SCF run NOT converged. To continue the calculation regardless,   *
 *    |             please set the keyword IGNORE_CONVERGENCE_FAILURE.         *
 *  O/|                                                                        *
 * /| |                                                                        *
 * / \                                                            qs_scf.F:611 *
 *******************************************************************************


 ===== Routine Calling Stack ===== 

            3 scf_env_do_scf
            2 qs_energies
            1 CP2K
