 DBCSR| CPU Multiplication driver                                           BLAS (U)
 DBCSR| Multrec recursion limit                                              512 (U)
 DBCSR| Multiplication stack size                                           1000 (D)
 DBCSR| Maximum elements for images                                    UNLIMITED (U)
 DBCSR| Multiplicative factor virtual images                                   1 (U)
 DBCSR| Use multiplication densification                                       T (D)
 DBCSR| Multiplication size stacks                                             3 (U)
 DBCSR| Use memory pool for CPU allocation                                     F (U)
 DBCSR| Number of 3D layers                                               SINGLE (U)
 DBCSR| Use MPI memory allocation                                              F (U)
 DBCSR| Use RMA algorithm                                                      F (U)
 DBCSR| Use Communication thread                                               T (U)
 DBCSR| Communication thread load                                             75 (D)
 DBCSR| MPI: My process id                                                     0
 DBCSR| MPI: Number of processes                                              48
 DBCSR| OMP: Current number of threads                                         4
 DBCSR| OMP: Max number of threads                                             4
 DBCSR| Split modifier for TAS multiplication algorithm                  1.0E+00 (U)


  **** **** ******  **  PROGRAM STARTED AT               2025-03-19 01:24:09.470
 ***** ** ***  *** **   PROGRAM STARTED ON                          i02r04c05s08
 **    ****   ******    PROGRAM STARTED BY                               di38fab
 ***** **    ** ** **   PROGRAM PROCESS ID                               2350890
  **** **  *******  **  PROGRAM STARTED IN /hppfs/scratch/04/di38fab/05_MOL/W4-1
                                           1+ALK/bh/aug-cc-pVDZ/GW+BSE

 CP2K| version string:                 CP2K version 2025.1 (Development Version)
 CP2K| source code revision number:                                  git:d2e611a
 CP2K| cp2kflags: omp libint fftw3 libxc parallel scalapack max_contr=4         
 CP2K| is freely available from                            https://www.cp2k.org/
 CP2K| Program compiled at                       Thu 06 Mar 2025 05:09:20 PM CET
 CP2K| Program compiled on                                               login02
 CP2K| Program compiled for                                        Supermuc-foss
 CP2K| Data directory path                  /hppfs/work/pn36zo/di38fab/cp2k/data
 CP2K| Input file name                                                    GW.inp

 GLOBAL| Force Environment number                                              1
 GLOBAL| Basis set file name            /hppfs/scratch/04/di38fab/04_TMD/BASIS_A
 GLOBAL| Potential file name            /hppfs/work/pn36zo/di38fab/cp2k/data/ALL
 GLOBAL| MM Potential file name                                     MM_POTENTIAL
 GLOBAL| Coordinate file name                                      __STD_INPUT__
 GLOBAL| Method name                                                        CP2K
 GLOBAL| Project name                                                       MoS2
 GLOBAL| Run type                                                         ENERGY
 GLOBAL| FFT library                                                       FFTW3
 GLOBAL| Diagonalization library                                       ScaLAPACK
 GLOBAL| DGEMM library                                                      BLAS
 GLOBAL| Orthonormality check for eigenvectors                          DISABLED
 GLOBAL| Matrix multiplication library                                 ScaLAPACK
 GLOBAL| All-to-all communication in single precision                          F
 GLOBAL| FFTs using library dependent lengths                                  F
 GLOBAL| Grid backend                                                       AUTO
 GLOBAL| Global print level                                               MEDIUM
 GLOBAL| MPI I/O enabled                                                       T
 GLOBAL| Total number of message passing processes                            48
 GLOBAL| Number of threads for this process                                    4
 GLOBAL| This output is from process                                           0
 GLOBAL| OpenMP stack size per thread (OMP_STACKSIZE)                    default
 GLOBAL| CPU model name             Intel(R) Xeon(R) Platinum 8174 CPU @ 3.10GHz

 MEMORY| system memory details [Kb]
 MEMORY|                        rank 0           min           max       average
 MEMORY| MemTotal             98436664      98436660      98436664      98436662
 MEMORY| MemFree              83994616      83893556      83994616      83948720
 MEMORY| Buffers                     0             0             0             0
 MEMORY| Cached                2422992       2385936       2426192       2406574
 MEMORY| Slab                  1237564       1237564       1265004       1253573
 MEMORY| SReclaimable           270196        266708        279036        272547
 MEMORY| MemLikelyFree        86687804      86558980      86687804      86627841


 *** Fundamental physical constants (SI units) ***

 *** Literature: B. J. Mohr and B. N. Taylor,
 ***             CODATA recommended values of the fundamental physical
 ***             constants: 2006, Web Version 5.1
 ***             http://physics.nist.gov/constants

 Speed of light in vacuum [m/s]                             2.99792458000000E+08
 Magnetic constant or permeability of vacuum [N/A**2]       1.25663706143592E-06
 Electric constant or permittivity of vacuum [F/m]          8.85418781762039E-12
 Planck constant (h) [J*s]                                  6.62606896000000E-34
 Planck constant (h-bar) [J*s]                              1.05457162825177E-34
 Elementary charge [C]                                      1.60217648700000E-19
 Electron mass [kg]                                         9.10938215000000E-31
 Electron g factor [ ]                                     -2.00231930436220E+00
 Proton mass [kg]                                           1.67262163700000E-27
 Fine-structure constant                                    7.29735253760000E-03
 Rydberg constant [1/m]                                     1.09737315685270E+07
 Avogadro constant [1/mol]                                  6.02214179000000E+23
 Boltzmann constant [J/K]                                   1.38065040000000E-23
 Atomic mass unit [kg]                                      1.66053878200000E-27
 Bohr radius [m]                                            5.29177208590000E-11

 *** Conversion factors ***

 [u] -> [a.u.]                                              1.82288848426455E+03
 [Angstrom] -> [Bohr] = [a.u.]                              1.88972613288564E+00
 [a.u.] = [Bohr] -> [Angstrom]                              5.29177208590000E-01
 [a.u.] -> [s]                                              2.41888432650478E-17
 [a.u.] -> [fs]                                             2.41888432650478E-02
 [a.u.] -> [J]                                              4.35974393937059E-18
 [a.u.] -> [N]                                              8.23872205491840E-08
 [a.u.] -> [K]                                              3.15774647902944E+05
 [a.u.] -> [kJ/mol]                                         2.62549961709828E+03
 [a.u.] -> [kcal/mol]                                       6.27509468713739E+02
 [a.u.] -> [Pa]                                             2.94210107994716E+13
 [a.u.] -> [bar]                                            2.94210107994716E+08
 [a.u.] -> [atm]                                            2.90362800883016E+08
 [a.u.] -> [eV]                                             2.72113838565563E+01
 [a.u.] -> [Hz]                                             6.57968392072181E+15
 [a.u.] -> [1/cm] (wave numbers)                            2.19474631370540E+05
 [a.u./Bohr**2] -> [1/cm]                                   5.14048714338585E+03
 

 CELL_TOP| Volume [angstrom^3]:                                     27000.000000
 CELL_TOP| Vector a [angstrom    30.000     0.000     0.000   |a| =    30.000000
 CELL_TOP| Vector b [angstrom     0.000    30.000     0.000   |b| =    30.000000
 CELL_TOP| Vector c [angstrom     0.000     0.000    30.000   |c| =    30.000000
 CELL_TOP| Angle (b,c), alpha [degree]:                                90.000000
 CELL_TOP| Angle (a,c), beta  [degree]:                                90.000000
 CELL_TOP| Angle (a,b), gamma [degree]:                                90.000000
 CELL_TOP| Numerically orthorhombic:                                         YES
 CELL_TOP| Periodicity                                                      NONE

 GENERATE|  Preliminary Number of Bonds generated:                             0
 GENERATE|  Achieved consistency in connectivity generation.

 CELL| Volume [angstrom^3]:                                         27000.000000
 CELL| Vector a [angstrom]:      30.000     0.000     0.000   |a| =    30.000000
 CELL| Vector b [angstrom]:       0.000    30.000     0.000   |b| =    30.000000
 CELL| Vector c [angstrom]:       0.000     0.000    30.000   |c| =    30.000000
 CELL| Angle (b,c), alpha [degree]:                                    90.000000
 CELL| Angle (a,c), beta  [degree]:                                    90.000000
 CELL| Angle (a,b), gamma [degree]:                                    90.000000
 CELL| Numerically orthorhombic:                                             YES
 CELL| Periodicity                                                          NONE

 CELL_REF| Volume [angstrom^3]:                                     27000.000000
 CELL_REF| Vector a [angstrom    30.000     0.000     0.000   |a| =    30.000000
 CELL_REF| Vector b [angstrom     0.000    30.000     0.000   |b| =    30.000000
 CELL_REF| Vector c [angstrom     0.000     0.000    30.000   |c| =    30.000000
 CELL_REF| Angle (b,c), alpha [degree]:                                90.000000
 CELL_REF| Angle (a,c), beta  [degree]:                                90.000000
 CELL_REF| Angle (a,b), gamma [degree]:                                90.000000
 CELL_REF| Numerically orthorhombic:                                         YES
 CELL_REF| Periodicity                                                      NONE

 *******************************************************************************
 *******************************************************************************
 **                                                                           **
 **     #####                         ##              ##                      **
 **    ##   ##            ##          ##              ##                      **
 **   ##     ##                       ##            ######                    **
 **   ##     ##  ##   ##  ##   #####  ##  ##   ####   ##    #####    #####    **
 **   ##     ##  ##   ##  ##  ##      ## ##   ##      ##   ##   ##  ##   ##   **
 **   ##  ## ##  ##   ##  ##  ##      ####     ###    ##   ######   ######    **
 **    ##  ###   ##   ##  ##  ##      ## ##      ##   ##   ##       ##        **
 **     #######   #####   ##   #####  ##  ##  ####    ##    #####   ##        **
 **           ##                                                    ##        **
 **                                                                           **
 **                                                ... make the atoms dance   **
 **                                                                           **
 **            Copyright (C) by CP2K developers group (2000-2025)             **
 **                      J. Chem. Phys. 152, 194103 (2020)                    **
 **                                                                           **
 *******************************************************************************

 DFT| Spin restricted Kohn-Sham (RKS) calculation                            RKS
 DFT| Multiplicity                                                             1
 DFT| Number of spin states                                                    1
 DFT| Charge                                                                   0
 DFT| Self-interaction correction (SIC)                                       NO
 DFT| Cutoffs: density                                              1.000000E-10
 DFT|          gradient                                             1.000000E-10
 DFT|          tau                                                  1.000000E-10
 DFT|          cutoff_smoothing_range                               0.000000E+00
 DFT| XC density smoothing                                                  NONE
 DFT| XC derivatives                                                          PW

 FUNCTIONAL| PBE:
 FUNCTIONAL| J.P.Perdew, K.Burke, M.Ernzerhof, Phys. Rev. Letter, vol. 77, n 18,
 FUNCTIONAL|  pp. 3865-3868, (1996)sx=0.750sc=1.000{spin unpolarized}           


 QS| Method:                                                                GAPW
 QS| Density plane wave grid type                        NON-SPHERICAL FULLSPACE
 QS| Number of grid levels:                                                    4
 QS| Density cutoff [a.u.]:                                                250.0
 QS| Multi grid cutoff [a.u.]: 1) grid level                               250.0
 QS|                           2) grid level                                83.3
 QS|                           3) grid level                                27.8
 QS|                           4) grid level                                 9.3
 QS| Grid level progression factor:                                          3.0
 QS| Relative density cutoff [a.u.]:                                        50.0
 QS| Interaction thresholds: eps_pgf_orb:                                1.0E-12
 QS|                         eps_filter_matrix:                          0.0E+00
 QS|                         eps_core_charge:                            1.0E-14
 QS|                         eps_rho_gspace:                             1.0E-12
 QS|                         eps_rho_rspace:                             1.0E-12
 QS|                         eps_gvg_rspace:                             1.0E-06
 QS|                         eps_ppl:                                    1.0E-02
 QS|                         eps_ppnl:                                   1.0E-08
 QS| GAPW|      One center basis from orbital basis primitives
 QS| GAPW|                   eps_fit:                                    1.0E-04
 QS| GAPW|                   eps_iso:                                    1.0E-12
 QS| GAPW|                   eps_svd:                                    1.0E-08
 QS| GAPW|                   eps_cpc:                                    1.0E-12
 QS| GAPW|   atom-r-grid: quadrature:                                     GC_LOG
 QS| GAPW|      atom-s-grid:  max l :                                          4
 QS| GAPW|      max_l_rho0 :                                                   2


 ATOMIC KIND INFORMATION

  1. Atomic kind: B                                     Number of atoms:       1

     Orbital Basis Set                                               aug-cc-pVDZ

       Number of orbital shell sets:                                           6
       Number of orbital shells:                                               9
       Number of primitive Cartesian functions:                               17
       Number of Cartesian basis functions:                                   25
       Number of spherical basis functions:                                   23
       Norm type:                                                              2

       Normalised Cartesian orbitals:

                        Set   Shell   Orbital            Exponent    Coefficient

                          1       1    1px               0.023780       0.013311
                          1       1    1py               0.023780       0.013311
                          1       1    1pz               0.023780       0.013311

                          2       1    1s                0.031050       0.052718

                          3       1    1dx2              0.090400       0.024530
                          3       1    1dxy              0.090400       0.042488
                          3       1    1dxz              0.090400       0.042488
                          3       1    1dy2              0.090400       0.024530
                          3       1    1dyz              0.090400       0.042488
                          3       1    1dz2              0.090400       0.024530

                          4       1    1px               6.001000       0.475024
                                                         1.241000       0.369809
                                                         0.336400       0.184501
                                                         0.095380       0.036228
                          4       1    1py               6.001000       0.475024
                                                         1.241000       0.369809
                                                         0.336400       0.184501
                                                         0.095380       0.036228
                          4       1    1pz               6.001000       0.475024
                                                         1.241000       0.369809
                                                         0.336400       0.184501
                                                         0.095380       0.036228

                          4       2    2px               6.001000       0.000000
                                                         1.241000       0.000000
                                                         0.336400       0.000000
                                                         0.095380       0.075555
                          4       2    2py               6.001000       0.000000
                                                         1.241000       0.000000
                                                         0.336400       0.000000
                                                         0.095380       0.075555
                          4       2    2pz               6.001000       0.000000
                                                         1.241000       0.000000
                                                         0.336400       0.000000
                                                         0.095380       0.075555

                          5       1    1s             4570.000000       0.275713
                                                       685.900000       0.511332
                                                       156.500000       0.855677
                                                        44.470000       1.244265
                                                        14.480000       1.439274
                                                         5.131000       1.089508
                                                         1.898000       0.334360
                                                         0.332900       0.004474
                                                         0.104300      -0.000456

                          5       2    2s             4570.000000      -0.055063
                                                       685.900000      -0.104788
                                                       156.500000      -0.171678
                                                        44.470000      -0.268981
                                                        14.480000      -0.316105
                                                         5.131000      -0.337084
                                                         1.898000      -0.151530
                                                         0.332900       0.168522
                                                         0.104300       0.075968

                          5       3    3s             4570.000000       0.000000
                                                       685.900000       0.000000
                                                       156.500000       0.000000
                                                        44.470000       0.000000
                                                        14.480000       0.000000
                                                         5.131000       0.000000
                                                         1.898000       0.000000
                                                         0.332900       0.000000
                                                         0.104300       0.130805

                          6       1    1dx2              0.343000       0.253031
                          6       1    1dxy              0.343000       0.438263
                          6       1    1dxz              0.343000       0.438263
                          6       1    1dy2              0.343000       0.253031
                          6       1    1dyz              0.343000       0.438263
                          6       1    1dz2              0.343000       0.253031

     RI Auxiliary Basis Set                                    aug-cc-pVDZ-OPTRI

       Number of orbital shell sets:                                          17
       Number of orbital shells:                                              17
       Number of primitive Cartesian functions:                               17
       Number of Cartesian basis functions:                                   88
       Number of spherical basis functions:                                   69
       Norm type:                                                              2

       Normalised Cartesian orbitals:

                        Set   Shell   Orbital            Exponent    Coefficient

                          1       1    1px               0.050296       0.033951
                          1       1    1py               0.050296       0.033951
                          1       1    1pz               0.050296       0.033951

                          2       1    1s                0.056572       0.082673

                          3       1    1px               0.150012       0.133075
                          3       1    1py               0.150012       0.133075
                          3       1    1pz               0.150012       0.133075

                          4       1    1fx3              0.199135       0.038997
                          4       1    1fx2y             0.199135       0.087201
                          4       1    1fx2z             0.199135       0.087201
                          4       1    1fxy2             0.199135       0.087201
                          4       1    1fxyz             0.199135       0.151037
                          4       1    1fxz2             0.199135       0.087201
                          4       1    1fy3              0.199135       0.038997
                          4       1    1fy2z             0.199135       0.087201
                          4       1    1fyz2             0.199135       0.087201
                          4       1    1fz3              0.199135       0.038997

                          5       1    1dx2              0.228104       0.123920
                          5       1    1dxy              0.228104       0.214636
                          5       1    1dxz              0.228104       0.214636
                          5       1    1dy2              0.228104       0.123920
                          5       1    1dyz              0.228104       0.214636
                          5       1    1dz2              0.228104       0.123920

                          6       1    1s                0.309008       0.295384

                          7       1    1px               0.312340       0.332832
                          7       1    1py               0.312340       0.332832
                          7       1    1pz               0.312340       0.332832

                          8       1    1dx2              0.523825       0.530867
                          8       1    1dxy              0.523825       0.919488
                          8       1    1dxz              0.523825       0.919488
                          8       1    1dy2              0.523825       0.530867
                          8       1    1dyz              0.523825       0.919488
                          8       1    1dz2              0.523825       0.530867

                          9       1    1fx3              0.580150       0.432434
                          9       1    1fx2y             0.580150       0.966952
                          9       1    1fx2z             0.580150       0.966952
                          9       1    1fxy2             0.580150       0.966952
                          9       1    1fxyz             0.580150       1.674811
                          9       1    1fxz2             0.580150       0.966952
                          9       1    1fy3              0.580150       0.432434
                          9       1    1fy2z             0.580150       0.966952
                          9       1    1fyz2             0.580150       0.966952
                          9       1    1fz3              0.580150       0.432434

                         10       1    1gx4              0.624505       0.304901
                         10       1    1gx3y             0.624505       0.806693
                         10       1    1gx3z             0.624505       0.806693
                         10       1    1gx2y2            0.624505       1.041436
                         10       1    1gx2yz            0.624505       1.803820
                         10       1    1gx2z2            0.624505       1.041436
                         10       1    1gxy3             0.624505       0.806693
                         10       1    1gxy2z            0.624505       1.803820
                         10       1    1gxyz2            0.624505       1.803820
                         10       1    1gxz3             0.624505       0.806693
                         10       1    1gy4              0.624505       0.304901
                         10       1    1gy3z             0.624505       0.806693
                         10       1    1gy2z2            0.624505       1.041436
                         10       1    1gyz3             0.624505       0.806693
                         10       1    1gz4              0.624505       0.304901

                         11       1    1px               0.650325       0.832440
                         11       1    1py               0.650325       0.832440
                         11       1    1pz               0.650325       0.832440

                         12       1    1s                1.138224       0.785382

                         13       1    1px               1.354044       2.082002
                         13       1    1py               1.354044       2.082002
                         13       1    1pz               1.354044       2.082002

                         14       1    1dx2              1.406891       2.991336
                         14       1    1dxy              1.406891       5.181147
                         14       1    1dxz              1.406891       5.181147
                         14       1    1dy2              1.406891       2.991336
                         14       1    1dyz              1.406891       5.181147
                         14       1    1dz2              1.406891       2.991336

                         15       1    1fx3              1.679928       4.729971
                         15       1    1fx2y             1.679928      10.576536
                         15       1    1fx2z             1.679928      10.576536
                         15       1    1fxy2             1.679928      10.576536
                         15       1    1fxyz             1.679928      18.319098
                         15       1    1fxz2             1.679928      10.576536
                         15       1    1fy3              1.679928       4.729971
                         15       1    1fy2z             1.679928      10.576536
                         15       1    1fyz2             1.679928      10.576536
                         15       1    1fz3              1.679928       4.729971

                         16       1    1dx2              3.778629      16.855607
                         16       1    1dxy              3.778629      29.194768
                         16       1    1dxz              3.778629      29.194768
                         16       1    1dy2              3.778629      16.855607
                         16       1    1dyz              3.778629      29.194768
                         16       1    1dz2              3.778629      16.855607

                         17       1    1s                4.192619       2.088210

       Atomic covalent radius [Angstrom]:                                  0.820

       Atomic van der Waals radius [Angstrom]:                             1.920

     The atoms of this atomic kind are PAW atoms (GAPW):
       Hard Gaussian function radius:                                      1.512
       Rho0 radius:                                                        1.512
       Maximum GTO radius used for PAW projector construction:            24.566

     GAPW Soft Basis Set                                        aug-cc-pVDZ_soft

       Number of orbital shell sets:                                           6
       Number of orbital shells:                                               9
       Number of primitive Cartesian functions:                               10
       Number of Cartesian basis functions:                                   25
       Number of spherical basis functions:                                   23
       Norm type:                                                              2

       Normalised Cartesian orbitals:

                        Set   Shell   Orbital            Exponent    Coefficient

                          1       1    1px               0.023780       0.013311
                          1       1    1py               0.023780       0.013311
                          1       1    1pz               0.023780       0.013311

                          2       1    1s                0.031050       0.052718

                          3       1    1dx2              0.090400       0.024530
                          3       1    1dxy              0.090400       0.042488
                          3       1    1dxz              0.090400       0.042488
                          3       1    1dy2              0.090400       0.024530
                          3       1    1dyz              0.090400       0.042488
                          3       1    1dz2              0.090400       0.024530

                          4       1    1px               1.241000       0.369809
                                                         0.336400       0.184501
                                                         0.095380       0.036228
                          4       1    1py               1.241000       0.369809
                                                         0.336400       0.184501
                                                         0.095380       0.036228
                          4       1    1pz               1.241000       0.369809
                                                         0.336400       0.184501
                                                         0.095380       0.036228

                          4       2    2px               1.241000       0.000000
                                                         0.336400       0.000000
                                                         0.095380       0.075555
                          4       2    2py               1.241000       0.000000
                                                         0.336400       0.000000
                                                         0.095380       0.075555
                          4       2    2pz               1.241000       0.000000
                                                         0.336400       0.000000
                                                         0.095380       0.075555

                          5       1    1s                1.898000       0.334360
                                                         0.332900       0.004474
                                                         0.104300      -0.000456

                          5       2    2s                1.898000      -0.151530
                                                         0.332900       0.168522
                                                         0.104300       0.075968

                          5       3    3s                1.898000       0.000000
                                                         0.332900       0.000000
                                                         0.104300       0.130805

                          6       1    1dx2              0.343000       0.253031
                          6       1    1dxy              0.343000       0.438263
                          6       1    1dxz              0.343000       0.438263
                          6       1    1dy2              0.343000       0.253031
                          6       1    1dyz              0.343000       0.438263
                          6       1    1dz2              0.343000       0.253031

     AE Potential information for                                            ALL

       Description:                                       All-electron potential
                                          Krack, Parrinello, PCCP 2, 2105 (2000)

       Gaussian exponent of the core charge distribution:               2.655410
       Electronic configuration (s p d ...):                           4   1   0

  2. Atomic kind: H                                     Number of atoms:       1

     Orbital Basis Set                                               aug-cc-pVDZ

       Number of orbital shell sets:                                           4
       Number of orbital shells:                                               5
       Number of primitive Cartesian functions:                                7
       Number of Cartesian basis functions:                                    9
       Number of spherical basis functions:                                    9
       Norm type:                                                              2

       Normalised Cartesian orbitals:

                        Set   Shell   Orbital            Exponent    Coefficient

                          1       1    1s                0.029740       0.051041

                          2       1    1s               13.010000       0.096107
                                                         1.962000       0.163020
                                                         0.444600       0.185545
                                                         0.122000       0.073744

                          2       2    2s               13.010000       0.000000
                                                         1.962000       0.000000
                                                         0.444600       0.000000
                                                         0.122000       0.147123

                          3       1    1px               0.141000       0.123158
                          3       1    1py               0.141000       0.123158
                          3       1    1pz               0.141000       0.123158

                          4       1    1px               0.727000       0.956881
                          4       1    1py               0.727000       0.956881
                          4       1    1pz               0.727000       0.956881

     RI Auxiliary Basis Set                                    aug-cc-pVDZ-OPTRI

       Number of orbital shell sets:                                           8
       Number of orbital shells:                                               8
       Number of primitive Cartesian functions:                                8
       Number of Cartesian basis functions:                                   24
       Number of spherical basis functions:                                   22
       Norm type:                                                              2

       Normalised Cartesian orbitals:

                        Set   Shell   Orbital            Exponent    Coefficient

                          1       1    1s                0.081394       0.108606

                          2       1    1px               0.273202       0.281543
                          2       1    1py               0.273202       0.281543
                          2       1    1pz               0.273202       0.281543

                          3       1    1s                0.286540       0.279125

                          4       1    1dx2              0.757634       1.012660
                          4       1    1dxy              0.757634       1.753978
                          4       1    1dxz              0.757634       1.753978
                          4       1    1dy2              0.757634       1.012660
                          4       1    1dyz              0.757634       1.753978
                          4       1    1dz2              0.757634       1.012660

                          5       1    1px               1.251075       1.886011
                          5       1    1py               1.251075       1.886011
                          5       1    1pz               1.251075       1.886011

                          6       1    1s                1.320036       0.877707

                          7       1    1dx2              2.604730       8.790108
                          7       1    1dxy              2.604730      15.224913
                          7       1    1dxz              2.604730      15.224913
                          7       1    1dy2              2.604730       8.790108
                          7       1    1dyz              2.604730      15.224913
                          7       1    1dz2              2.604730       8.790108

                          8       1    1px               2.667161       4.858494
                          8       1    1py               2.667161       4.858494
                          8       1    1pz               2.667161       4.858494

       Atomic covalent radius [Angstrom]:                                  0.320

       Atomic van der Waals radius [Angstrom]:                             1.090

     The atoms of this atomic kind are PAW atoms (GAPW):
       Hard Gaussian function radius:                                      1.200
       Rho0 radius:                                                        1.200
       Maximum GTO radius used for PAW projector construction:            24.566

     GAPW Soft Basis Set                                        aug-cc-pVDZ_soft

       Number of orbital shell sets:                                           4
       Number of orbital shells:                                               5
       Number of primitive Cartesian functions:                                6
       Number of Cartesian basis functions:                                    9
       Number of spherical basis functions:                                    9
       Norm type:                                                              2

       Normalised Cartesian orbitals:

                        Set   Shell   Orbital            Exponent    Coefficient

                          1       1    1s                0.029740       0.051041

                          2       1    1s                1.962000       0.163020
                                                         0.444600       0.185545
                                                         0.122000       0.073744

                          2       2    2s                1.962000       0.000000
                                                         0.444600       0.000000
                                                         0.122000       0.147123

                          3       1    1px               0.141000       0.123158
                          3       1    1py               0.141000       0.123158
                          3       1    1pz               0.141000       0.123158

                          4       1    1px               0.727000       0.956881
                          4       1    1py               0.727000       0.956881
                          4       1    1pz               0.727000       0.956881

     AE Potential information for                                            ALL

       Description:                                       All-electron potential
                                          Krack, Parrinello, PCCP 2, 2105 (2000)

       Gaussian exponent of the core charge distribution:              12.500000
       Electronic configuration (s p d ...):                           1   0   0


 MOLECULE KIND INFORMATION


 All atoms are their own molecule, skipping detailed information


 TOTAL NUMBERS AND MAXIMUM NUMBERS

  Total number of            - Atomic kinds:                                   2
                             - Atoms:                                          2
                             - Shell sets:                                    10
                             - Shells:                                        14
                             - Primitive Cartesian functions:                 24
                             - Cartesian basis functions:                     34
                             - Spherical basis functions:                     32

  Maximum angular momentum of the orbital basis functions:                     2


 MODULE QUICKSTEP: ATOMIC COORDINATES IN ANGSTROM

   Atom Kind Element         X             Y             Z       Z(eff)     Mass
      1    1 B     5     15.616628     15.000000     15.000000   5.0000  10.8110
      2    2 H     1     14.383372     15.000000     15.000000   1.0000   1.0079



 SCF PARAMETERS         Density guess:                                    ATOMIC
                        --------------------------------------------------------
                        max_scf:                                             500
                        max_scf_history:                                       0
                        max_diis:                                              4
                        --------------------------------------------------------
                        eps_scf:                                        1.00E-06
                        eps_scf_history:                                0.00E+00
                        eps_diis:                                       1.00E-01
                        eps_eigval:                                     1.00E-05
                        --------------------------------------------------------
                        level_shift [a.u.]:                             0.000000
                        added MOs                                        29    0
                        --------------------------------------------------------
                        Mixing method:                            BROYDEN_MIXING
                                                charge density mixing in g-space
                        --------------------------------------------------------
                        No outer SCF

 PW_GRID| Information for grid number                                          1
 PW_GRID| Grid distributed over                                    48 processors
 PW_GRID| Real space group dimensions                                    48    1
 PW_GRID| the grid is blocked:                                                NO
 PW_GRID| Cutoff [a.u.]                                                    250.0
 PW_GRID| spherical cutoff:                                                   NO
 PW_GRID|   Bounds   1           -202     202                Points:         405
 PW_GRID|   Bounds   2           -202     202                Points:         405
 PW_GRID|   Bounds   3           -202     202                Points:         405
 PW_GRID| Volume element (a.u.^3)  0.2743E-02     Volume (a.u.^3)    182205.0337
 PW_GRID| Grid span                                                    FULLSPACE
 PW_GRID|   Distribution                         Average         Max         Min
 PW_GRID|   G-Vectors                          1383960.9     1384290     1383885
 PW_GRID|   G-Rays                                3417.2        3418        3417
 PW_GRID|   Real Space Points                  1383960.9     1476225     1312200

 PW_GRID| Information for grid number                                          2
 PW_GRID| Number of the reference grid                                         1
 PW_GRID| Grid distributed over                                    48 processors
 PW_GRID| Real space group dimensions                                    48    1
 PW_GRID| the grid is blocked:                                                NO
 PW_GRID| Cutoff [a.u.]                                                     83.3
 PW_GRID| spherical cutoff:                                                   NO
 PW_GRID|   Bounds   1           -120     119                Points:         240
 PW_GRID|   Bounds   2           -120     119                Points:         240
 PW_GRID|   Bounds   3           -120     119                Points:         240
 PW_GRID| Volume element (a.u.^3)  0.1318E-01     Volume (a.u.^3)    182205.0337
 PW_GRID| Grid span                                                    FULLSPACE
 PW_GRID|   Distribution                         Average         Max         Min
 PW_GRID|   G-Vectors                           288000.0      288720      287520
 PW_GRID|   G-Rays                                1200.0        1203        1198
 PW_GRID|   Real Space Points                   288000.0      288000      288000

 PW_GRID| Information for grid number                                          3
 PW_GRID| Number of the reference grid                                         1
 PW_GRID| Grid distributed over                                    48 processors
 PW_GRID| Real space group dimensions                                    48    1
 PW_GRID| the grid is blocked:                                                NO
 PW_GRID| Cutoff [a.u.]                                                     27.8
 PW_GRID| spherical cutoff:                                                   NO
 PW_GRID|   Bounds   1            -67      67                Points:         135
 PW_GRID|   Bounds   2            -67      67                Points:         135
 PW_GRID|   Bounds   3            -67      67                Points:         135
 PW_GRID| Volume element (a.u.^3)  0.7406E-01     Volume (a.u.^3)    182205.0337
 PW_GRID| Grid span                                                    FULLSPACE
 PW_GRID|   Distribution                         Average         Max         Min
 PW_GRID|   G-Vectors                            51257.8       51570       51030
 PW_GRID|   G-Rays                                 379.7         382         378
 PW_GRID|   Real Space Points                    51257.8       54675       36450

 PW_GRID| Information for grid number                                          4
 PW_GRID| Number of the reference grid                                         1
 PW_GRID| Grid distributed over                                    48 processors
 PW_GRID| Real space group dimensions                                    48    1
 PW_GRID| the grid is blocked:                                                NO
 PW_GRID| Cutoff [a.u.]                                                      9.3
 PW_GRID| spherical cutoff:                                                   NO
 PW_GRID|   Bounds   1            -40      39                Points:          80
 PW_GRID|   Bounds   2            -40      39                Points:          80
 PW_GRID|   Bounds   3            -40      39                Points:          80
 PW_GRID| Volume element (a.u.^3)  0.3559         Volume (a.u.^3)    182205.0337
 PW_GRID| Grid span                                                    FULLSPACE
 PW_GRID|   Distribution                         Average         Max         Min
 PW_GRID|   G-Vectors                            10666.7       10800       10560
 PW_GRID|   G-Rays                                 133.3         135         132
 PW_GRID|   Real Space Points                    10666.7       12800        6400

 POISSON| Solver                                                         WAVELET
 POISSON| Wavelet| Scaling function                                           40
 POISSON| Periodicity                                                       NONE

 RS_GRID| Information for grid number                                          1
 RS_GRID|   Bounds   1           -202     202                Points:         405
 RS_GRID|   Bounds   2           -202     202                Points:         405
 RS_GRID|   Bounds   3           -202     202                Points:         405
 RS_GRID| Real space distribution over                                  3 groups
 RS_GRID| Real space distribution along direction                              1
 RS_GRID| Border size                                                         33
 RS_GRID| Real space distribution over                                  4 groups
 RS_GRID| Real space distribution along direction                              2
 RS_GRID| Border size                                                         33
 RS_GRID| Real space distribution over                                  4 groups
 RS_GRID| Real space distribution along direction                              3
 RS_GRID| Border size                                                         33
 RS_GRID|   Distribution                         Average         Max         Min
 RS_GRID|   Planes                                 201.0         201         201
 RS_GRID|   Distribution                         Average         Max         Min
 RS_GRID|   Planes                                 167.2         168         167
 RS_GRID|   Distribution                         Average         Max         Min
 RS_GRID|   Planes                                 167.2         168         167

 RS_GRID| Information for grid number                                          2
 RS_GRID|   Bounds   1           -120     119                Points:         240
 RS_GRID|   Bounds   2           -120     119                Points:         240
 RS_GRID|   Bounds   3           -120     119                Points:         240
 RS_GRID| Real space distribution over                                  3 groups
 RS_GRID| Real space distribution along direction                              1
 RS_GRID| Border size                                                         34
 RS_GRID| Real space distribution over                                  4 groups
 RS_GRID| Real space distribution along direction                              2
 RS_GRID| Border size                                                         34
 RS_GRID| Real space distribution over                                  4 groups
 RS_GRID| Real space distribution along direction                              3
 RS_GRID| Border size                                                         34
 RS_GRID|   Distribution                         Average         Max         Min
 RS_GRID|   Planes                                 148.0         148         148
 RS_GRID|   Distribution                         Average         Max         Min
 RS_GRID|   Planes                                 128.0         128         128
 RS_GRID|   Distribution                         Average         Max         Min
 RS_GRID|   Planes                                 128.0         128         128

 RS_GRID| Information for grid number                                          3
 RS_GRID|   Bounds   1            -67      67                Points:         135
 RS_GRID|   Bounds   2            -67      67                Points:         135
 RS_GRID|   Bounds   3            -67      67                Points:         135
 RS_GRID| Real space fully replicated
 RS_GRID| Group size                                                           1

 RS_GRID| Information for grid number                                          4
 RS_GRID|   Bounds   1            -40      39                Points:          80
 RS_GRID|   Bounds   2            -40      39                Points:          80
 RS_GRID|   Bounds   3            -40      39                Points:          80
 RS_GRID| Real space fully replicated
 RS_GRID| Group size                                                           1

  HFX_INFO| Replica ID:                                                        1
  HFX_INFO| FRACTION:                                               0.2500000000
  HFX_INFO| Interaction Potential:                                       COULOMB
  HFX_INFO| EPS_SCHWARZ:                                                 1.0E-10
  HFX_INFO| EPS_SCHWARZ_FORCES                                           1.0E-08
  HFX_INFO| EPS_STORAGE_SCALING:                                         1.0E+00
  HFX_INFO| NBINS:                                                            64
  HFX_INFO| BLOCK_SIZE:                                                        1
  HFX_INFO| Number of periodic shells considered:                           NONE
  HFX_INFO| Number of periodic cells considered:                            NONE

 
 RI-RPA| using GPW style
 

 OVERLAP MATRIX CONDITION NUMBER
 1-Norm Condition Number (Estimate)
   CN : |A|*|A^-1|:  6.766E+000 *  1.948E+003   = 1.318E+004  Log(1-CN):  4.1199
 1-Norm and 2-Norm Condition Numbers using Diagonalization
   CN : |A|*|A^-1|:  6.766E+000 *  1.948E+003   = 1.318E+004  Log(1-CN):  4.1199
   CN : max/min ev:  4.834E+000 /  8.351E-004   = 5.789E+003  Log(2-CN):  3.7626

 Number of electrons:                                                          6
 Number of occupied orbitals:                                                  3
 Number of molecular orbitals:                                                32

 Number of orbital functions:                                                 32
 Number of independent orbital functions:                                     32

 Extrapolation method: initial_guess

 Atomic guess: The first density matrix is obtained in terms of atomic orbitals
               and electronic configurations assigned to each atomic kind

 Guess for atomic kind: B

 Electronic structure
    Total number of core electrons                                          0.00
    Total number of valence electrons                                       5.00
    Total number of electrons                                               5.00
    Multiplicity                                                   not specified
    S      2.00  2.00
    P      1.00


 *******************************************************************************
                  Iteration          Convergence                     Energy [au]
 *******************************************************************************
                          1        0.460359E-01                 -24.334985930574
                          2        0.205214E-01                 -24.337140561715
                          3        0.117435E-02                 -24.337989566848
                          4        0.175895E-04                 -24.337991674331
                          5        0.596531E-07                 -24.337991674739

 Energy components [Hartree]           Total Energy ::          -24.337991674739
                                        Band Energy ::          -13.931958661609
                                     Kinetic Energy ::           24.427852794124
                                   Potential Energy ::          -48.765844468863
                                      Virial (-V/T) ::            1.996321366428
                                        Core Energy ::          -32.323145461531
                                          XC Energy ::           -3.540020579852
                                     Coulomb Energy ::           11.525174366644

 Orbital energies  State     L     Occupation   Energy[a.u.]          Energy[eV]

                       1     0          2.000      -6.552602         -178.305360
                       2     0          2.000      -0.345371           -9.398013

                       1     1          1.000      -0.136014           -3.701130


 Total Electron Density at R=0:                                        68.786961

 Guess for atomic kind: H

 Electronic structure
    Total number of core electrons                                          0.00
    Total number of valence electrons                                       1.00
    Total number of electrons                                               1.00
    Multiplicity                                                   not specified
    S      1.00


 *******************************************************************************
                  Iteration          Convergence                     Energy [au]
 *******************************************************************************
                          1        0.880988E-02                  -0.444778274653
                          2        0.791349E-03                  -0.444877834394
                          3        0.111042E-03                  -0.444880192149
                          4        0.306660E-07                  -0.444880212296

 Energy components [Hartree]           Total Energy ::           -0.444880212296
                                        Band Energy ::           -0.232361879729
                                     Kinetic Energy ::            0.420568354334
                                   Potential Energy ::           -0.865448566630
                                      Virial (-V/T) ::            2.057807150044
                                        Core Energy ::           -0.495477856147
                                          XC Energy ::           -0.232385335983
                                     Coulomb Energy ::            0.282982979834

 Orbital energies  State     L     Occupation   Energy[a.u.]          Energy[eV]

                       1     0          1.000      -0.232362           -6.322888


 Total Electron Density at R=0:                                         0.221399
 Re-scaling the density matrix to get the right number of electrons
                  # Electrons              Trace(P)               Scaling factor
                            6                 6.000                        1.000


 SCF WAVEFUNCTION OPTIMIZATION

  Step     Update method      Time    Convergence         Total energy    Change
  ------------------------------------------------------------------------------

  HFX_MEM_INFO| Est. max. program size before HFX [MiB]:                    1284
  HFX_MEM_INFO| Number of cart. primitive ERI's calculated:              2810414
  HFX_MEM_INFO| Number of sph. ERI's calculated:                          498370
  HFX_MEM_INFO| Number of sph. ERI's stored in-core:                      498370
  HFX_MEM_INFO| Number of sph. ERI's stored on disk:                           0
  HFX_MEM_INFO| Number of sph. ERI's calculated on the fly:                    0
  HFX_MEM_INFO| Total memory consumption ERI's RAM [MiB]:                      3
  HFX_MEM_INFO| Whereof max-vals [MiB]:                                        2
  HFX_MEM_INFO| Total compression factor ERI's RAM:                         1.29
  HFX_MEM_INFO| Total memory consumption ERI's disk [MiB]:                     0
  HFX_MEM_INFO| Total compression factor ERI's disk:                        0.00
  HFX_MEM_INFO| Size of density/Fock matrix [MiB]:                             0
  HFX_MEM_INFO| Size of buffers [MiB]:                                         0
  HFX_MEM_INFO| Est. max. program size after HFX  [MiB]:                    1792

     1 NoMix/Diag. 0.10E+00    4.2     1.02334158       -25.1688298177 -2.52E+01
     2 Broy./Diag. 0.10E+00    2.6     0.14753860       -24.9893481175  1.79E-01
     3 Broy./Diag. 0.10E+00    2.7     0.17296240       -24.7891271615  2.00E-01
     4 Broy./Diag. 0.10E+00    2.6     0.37384729       -25.0371298362 -2.48E-01
     5 Broy./Diag. 0.10E+00    2.6     0.05987547       -25.1108778177 -7.37E-02
     6 Broy./Diag. 0.10E+00    2.7     0.01847135       -25.1147804766 -3.90E-03
     7 Broy./Diag. 0.10E+00    2.7     0.06149172       -25.1691118585 -5.43E-02
     8 Broy./Diag. 0.10E+00    2.8     0.01892480       -25.2055394436 -3.64E-02
     9 Broy./Diag. 0.10E+00    2.8     0.01941810       -25.2250151541 -1.95E-02
    10 Broy./Diag. 0.10E+00    2.8     0.03471450       -25.2418882520 -1.69E-02
    11 Broy./Diag. 0.10E+00    2.9     0.00878374       -25.2496245255 -7.74E-03
    12 Broy./Diag. 0.10E+00    2.8     0.00841799       -25.2453172963  4.31E-03
    13 Broy./Diag. 0.10E+00    2.8     0.00679617       -25.2412501890  4.07E-03
    14 Broy./Diag. 0.10E+00    2.9     0.00151293       -25.2436638736 -2.41E-03
    15 Broy./Diag. 0.10E+00    2.8     0.00597756       -25.2455672609 -1.90E-03
    16 Broy./Diag. 0.10E+00    2.8     0.00401602       -25.2445219677  1.05E-03
    17 Broy./Diag. 0.10E+00    2.9     0.00087150       -25.2450281296 -5.06E-04
    18 Broy./Diag. 0.10E+00    2.9     0.00459088       -25.2458241203 -7.96E-04
    19 Broy./Diag. 0.10E+00    2.9     0.00196600       -25.2451280701  6.96E-04
    20 Broy./Diag. 0.10E+00    2.8     0.00209846       -25.2448984155  2.30E-04
    21 Broy./Diag. 0.10E+00    2.8     0.00070866       -25.2445860364  3.12E-04
    22 Broy./Diag. 0.10E+00    2.8     0.00172190       -25.2440851224  5.01E-04
    23 Broy./Diag. 0.10E+00    2.9     0.00131909       -25.2441964105 -1.11E-04
    24 Broy./Diag. 0.10E+00    2.8     0.00248453       -25.2440168423  1.80E-04
    25 Broy./Diag. 0.10E+00    2.8     0.00097301       -25.2440135964  3.25E-06
    26 Broy./Diag. 0.10E+00    2.8     0.00068742       -25.2440781542 -6.46E-05
    27 Broy./Diag. 0.10E+00    2.8     0.00042558       -25.2439970276  8.11E-05
    28 Broy./Diag. 0.10E+00    2.8     0.00080943       -25.2436753107  3.22E-04
    29 Broy./Diag. 0.10E+00    2.8     0.00050383       -25.2434973907  1.78E-04
    30 Broy./Diag. 0.10E+00    2.8     0.00065560       -25.2434887661  8.62E-06
    31 Broy./Diag. 0.10E+00    2.8     0.00093528       -25.2434921073 -3.34E-06
    32 Broy./Diag. 0.10E+00    2.8     0.00018322       -25.2434918306  2.77E-07
    33 Broy./Diag. 0.10E+00    2.8     0.00004232       -25.2435250957 -3.33E-05
    34 Broy./Diag. 0.10E+00    2.8     0.00021970       -25.2435960673 -7.10E-05
    35 Broy./Diag. 0.10E+00    2.9     0.00003081       -25.2436038706 -7.80E-06
    36 Broy./Diag. 0.10E+00    2.8     0.00041497       -25.2435759309  2.79E-05
    37 Broy./Diag. 0.10E+00    2.8     0.00021358       -25.2435524699  2.35E-05
    38 Broy./Diag. 0.10E+00    2.9     0.00005997       -25.2435449448  7.53E-06
    39 Broy./Diag. 0.10E+00    2.9     0.00036049       -25.2435072439  3.77E-05
    40 Broy./Diag. 0.10E+00    2.8     0.00015083       -25.2434954958  1.17E-05
    41 Broy./Diag. 0.10E+00    2.8     0.00002920       -25.2434921391  3.36E-06
    42 Broy./Diag. 0.10E+00    2.8     0.00020156       -25.2434844522  7.69E-06
    43 Broy./Diag. 0.10E+00    2.9     0.00004478       -25.2434783213  6.13E-06
    44 Broy./Diag. 0.10E+00    2.8     0.00017083       -25.2434739150  4.41E-06
    45 Broy./Diag. 0.10E+00    2.8     0.00004545       -25.2434741087 -1.94E-07
    46 Broy./Diag. 0.10E+00    2.8     0.00001693       -25.2434733161  7.93E-07
    47 Broy./Diag. 0.10E+00    2.9     0.00001912       -25.2434708007  2.52E-06
    48 Broy./Diag. 0.10E+00    2.9     0.00002934       -25.2434699147  8.86E-07
    49 Broy./Diag. 0.10E+00    2.9     0.00003456       -25.2434722487 -2.33E-06
    50 Broy./Diag. 0.10E+00    2.9     0.00004928       -25.2434752391 -2.99E-06
    51 Broy./Diag. 0.10E+00    2.8     0.00002311       -25.2434750665  1.73E-07
    52 Broy./Diag. 0.10E+00    2.8     0.00002962       -25.2434737217  1.34E-06
    53 Broy./Diag. 0.10E+00    3.0     0.00000491       -25.2434737403 -1.86E-08
    54 Broy./Diag. 0.10E+00    2.8     0.00000909       -25.2434739392 -1.99E-07
    55 Broy./Diag. 0.10E+00    2.9     0.00000506       -25.2434732139  7.25E-07
    56 Broy./Diag. 0.10E+00    2.8     0.00000227       -25.2434726107  6.03E-07
    57 Broy./Diag. 0.10E+00    2.8     0.00000993       -25.2434725581  5.27E-08
    58 Broy./Diag. 0.10E+00    2.8     0.00000580       -25.2434723047  2.53E-07
    59 Broy./Diag. 0.10E+00    2.9     0.00000065       -25.2434719657  3.39E-07

  *** SCF run converged in    59 steps ***


  Electronic density on regular grids:         -4.1678119621        1.8321880379
  Core density on regular grids:                6.0000000000       -0.0000000000
  Hard and soft densities (Lebedev):          -10.7627923698       -8.9306036036
  Total Rho_soft + Rho1_hard - Rho1_soft       -6.0000007284
  Total charge density (r-space):              -0.0000007284
  Total Rho_soft + Rho0_soft (g-space):        -0.0000007511

  Overlap energy of the core charge distribution:               0.00000230416181
  Self energy of the core charge distribution:                -17.66281176767632
  Core Hamiltonian energy:                                     -6.27168601518352
  Hartree energy:                                               8.65323522468113
  Exchange-correlation energy:                                 -1.01773049744060
  Hartree-Fock Exchange energy:                                -1.03073411013104

  GAPW| Exc from hard and soft atomic rho1:                    -2.19387446373293
  GAPW| local Eh = 1 center integrals:                         -5.71987264040052

  Total energy:                                               -25.24347196572198

 !-----------------------------------------------------------------------------!
                     Mulliken Population Analysis

 #  Atom  Element  Kind  Atomic population                           Net charge
       1     B        1          5.423258                             -0.423258
       2     H        2          0.576742                              0.423258
 # Total charge                              6.000000                 -0.000000

 !-----------------------------------------------------------------------------!

 !-----------------------------------------------------------------------------!
                           Hirshfeld Charges

  #Atom  Element  Kind  Ref Charge     Population                    Net charge
      1       B      1       5.000          5.413                        -0.413
      2       H      2       1.000          0.577                         0.423

  Total Charge                                                            0.011
 !-----------------------------------------------------------------------------!


 RI-RPA section
 --------------

  Used number of processes per group:                                          1
  Maximum allowed memory usage per MPI process:                      1024.00 MiB
  RI_INFO| Cholesky decomposition group size:                                  4
  RI_INFO| Number of groups for auxiliary basis functions                     48

  RI_INFO| RI metric:                                                    COULOMB
  RI_INFO| Number of auxiliary basis functions:                               91
  GENERAL_INFO| Number of basis functions:                                    32
  GENERAL_INFO| Number of occupied orbitals:                                   3
  GENERAL_INFO| Number of virtual orbitals:                                   29
  RI_INFO| Total memory for (ia|K) integrals:                           0.06 MiB
  RI_INFO| Total memory for G0W0-(nm|K) integrals:                      0.71 MiB
  RI_INFO| Total memory for (ij|K) integrals:                           0.01 MiB
  RI_INFO| Total memory for (ab|K) integrals:                           0.58 MiB
  RI_INFO| Group size for frequency integration:                              48
  INTEG_INFO| Clenshaw-Curtius quadrature
  INTEG_INFO| Number of integration points:                                  100
  INTEG_INFO| Number of integration points per RPA group:                    100
  MATRIX_INFO| Number row processes:                                           8
  MATRIX_INFO| Number column processes:                                        6
  MATRIX_INFO| Row block size:                                                 5
  MATRIX_INFO| Column block size:                                              7
  INTEG_INFO| Scaling parameter:                                         0.20000
  INTEG_INFO| Started with Integration point   1 of 100
  INTEG_INFO| Started with Integration point   2 of 100
  INTEG_INFO| Started with Integration point   3 of 100
  INTEG_INFO| Started with Integration point   4 of 100
  INTEG_INFO| Started with Integration point   5 of 100
  INTEG_INFO| Started with Integration point   6 of 100
  INTEG_INFO| Started with Integration point   7 of 100
  INTEG_INFO| Started with Integration point   8 of 100
  INTEG_INFO| Started with Integration point   9 of 100
  INTEG_INFO| Started with Integration point  10 of 100
  INTEG_INFO| Started with Integration point  11 of 100
  INTEG_INFO| Started with Integration point  12 of 100
  INTEG_INFO| Started with Integration point  13 of 100
  INTEG_INFO| Started with Integration point  14 of 100
  INTEG_INFO| Started with Integration point  15 of 100
  INTEG_INFO| Started with Integration point  16 of 100
  INTEG_INFO| Started with Integration point  17 of 100
  INTEG_INFO| Started with Integration point  18 of 100
  INTEG_INFO| Started with Integration point  19 of 100
  INTEG_INFO| Started with Integration point  20 of 100
  INTEG_INFO| Started with Integration point  21 of 100
  INTEG_INFO| Started with Integration point  22 of 100
  INTEG_INFO| Started with Integration point  23 of 100
  INTEG_INFO| Started with Integration point  24 of 100
  INTEG_INFO| Started with Integration point  25 of 100
  INTEG_INFO| Started with Integration point  26 of 100
  INTEG_INFO| Started with Integration point  27 of 100
  INTEG_INFO| Started with Integration point  28 of 100
  INTEG_INFO| Started with Integration point  29 of 100
  INTEG_INFO| Started with Integration point  30 of 100
  INTEG_INFO| Started with Integration point  31 of 100
  INTEG_INFO| Started with Integration point  32 of 100
  INTEG_INFO| Started with Integration point  33 of 100
  INTEG_INFO| Started with Integration point  34 of 100
  INTEG_INFO| Started with Integration point  35 of 100
  INTEG_INFO| Started with Integration point  36 of 100
  INTEG_INFO| Started with Integration point  37 of 100
  INTEG_INFO| Started with Integration point  38 of 100
  INTEG_INFO| Started with Integration point  39 of 100
  INTEG_INFO| Started with Integration point  40 of 100
  INTEG_INFO| Started with Integration point  41 of 100
  INTEG_INFO| Started with Integration point  42 of 100
  INTEG_INFO| Started with Integration point  43 of 100
  INTEG_INFO| Started with Integration point  44 of 100
  INTEG_INFO| Started with Integration point  45 of 100
  INTEG_INFO| Started with Integration point  46 of 100
  INTEG_INFO| Started with Integration point  47 of 100
  INTEG_INFO| Started with Integration point  48 of 100
  INTEG_INFO| Started with Integration point  49 of 100
  INTEG_INFO| Started with Integration point  50 of 100
  INTEG_INFO| Started with Integration point  51 of 100
  INTEG_INFO| Started with Integration point  52 of 100
  INTEG_INFO| Started with Integration point  53 of 100
  INTEG_INFO| Started with Integration point  54 of 100
  INTEG_INFO| Started with Integration point  55 of 100
  INTEG_INFO| Started with Integration point  56 of 100
  INTEG_INFO| Started with Integration point  57 of 100
  INTEG_INFO| Started with Integration point  58 of 100
  INTEG_INFO| Started with Integration point  59 of 100
  INTEG_INFO| Started with Integration point  60 of 100
  INTEG_INFO| Started with Integration point  61 of 100
  INTEG_INFO| Started with Integration point  62 of 100
  INTEG_INFO| Started with Integration point  63 of 100
  INTEG_INFO| Started with Integration point  64 of 100
  INTEG_INFO| Started with Integration point  65 of 100
  INTEG_INFO| Started with Integration point  66 of 100
  INTEG_INFO| Started with Integration point  67 of 100
  INTEG_INFO| Started with Integration point  68 of 100
  INTEG_INFO| Started with Integration point  69 of 100
  INTEG_INFO| Started with Integration point  70 of 100
  INTEG_INFO| Started with Integration point  71 of 100
  INTEG_INFO| Started with Integration point  72 of 100
  INTEG_INFO| Started with Integration point  73 of 100
  INTEG_INFO| Started with Integration point  74 of 100
  INTEG_INFO| Started with Integration point  75 of 100
  INTEG_INFO| Started with Integration point  76 of 100
  INTEG_INFO| Started with Integration point  77 of 100
  INTEG_INFO| Started with Integration point  78 of 100
  INTEG_INFO| Started with Integration point  79 of 100
  INTEG_INFO| Started with Integration point  80 of 100
  INTEG_INFO| Started with Integration point  81 of 100
  INTEG_INFO| Started with Integration point  82 of 100
  INTEG_INFO| Started with Integration point  83 of 100
  INTEG_INFO| Started with Integration point  84 of 100
  INTEG_INFO| Started with Integration point  85 of 100
  INTEG_INFO| Started with Integration point  86 of 100
  INTEG_INFO| Started with Integration point  87 of 100
  INTEG_INFO| Started with Integration point  88 of 100
  INTEG_INFO| Started with Integration point  89 of 100
  INTEG_INFO| Started with Integration point  90 of 100
  INTEG_INFO| Started with Integration point  91 of 100
  INTEG_INFO| Started with Integration point  92 of 100
  INTEG_INFO| Started with Integration point  93 of 100
  INTEG_INFO| Started with Integration point  94 of 100
  INTEG_INFO| Started with Integration point  95 of 100
  INTEG_INFO| Started with Integration point  96 of 100
  INTEG_INFO| Started with Integration point  97 of 100
  INTEG_INFO| Started with Integration point  98 of 100
  INTEG_INFO| Started with Integration point  99 of 100
  INTEG_INFO| Started with Integration point 100 of 100
  PERFORMANCE| Average DGEMM flop rate (Gflops / MPI rank):                 0.03
  
  
  ******************************************************************************
  **                                                                          **
  **                        GW QUASIPARTICLE ENERGIES                         **
  **                                                                          **
  ******************************************************************************
   
   
  The GW quasiparticle energies are calculated according to: 
   
                      E_GW = E_SCF + Sigc(E_GW) + Sigx - vxc 
   
  Upper equation is solved self-consistently for E_GW, see Eq. (12) in J. Phys.
  Chem. Lett. 9, 306 (2018), doi: 10.1021/acs.jpclett.7b02740
  
  
  ------------
  G0W0 results
  ------------
   
  Molecular orbital   E_SCF (eV)       Sigc (eV)   Sigx-vxc (eV)       E_GW (eV)
     1 ( occ )         -187.3866         -0.7033        -13.3858       -201.4757
     2 ( occ )          -13.5991          1.0324         -3.6854        -16.2522
     3 ( occ )           -6.6720          0.0884         -2.4964         -9.0801
     4 ( vir )           -2.3720         -1.3997          4.1302          0.3585
     5 ( vir )           -2.3720         -1.3997          4.1302          0.3585
     6 ( vir )            0.4271         -0.2684          1.2193          1.3779
     7 ( vir )            1.1003         -0.1396          0.7420          1.7027
     8 ( vir )            1.3396         -0.3173          1.0945          2.1169
     9 ( vir )            1.3396         -0.3173          1.0945          2.1169
    10 ( vir )            2.4817         -0.2679          1.2241          3.4379
    11 ( vir )            4.5332         -0.9399          2.9094          6.5028
    12 ( vir )            5.1449         -0.5228          2.3936          7.0157
    13 ( vir )            5.1449         -0.5228          2.3936          7.0157
    14 ( vir )            5.4036         -0.5509          2.1921          7.0447
    15 ( vir )            5.4036         -0.5509          2.1921          7.0447
    16 ( vir )            7.1793         -0.8033          2.5181          8.8940
    17 ( vir )            8.9903         -0.6961          2.1733         10.4674
    18 ( vir )           10.2420         -1.8617          4.2313         12.6115
    19 ( vir )           10.2420         -1.8619          4.2313         12.6113
    20 ( vir )           11.2816         -1.0159          3.0051         13.2707
    21 ( vir )           11.2816         -1.0156          3.0051         13.2710
    22 ( vir )           14.7507         -1.5726          4.8801         18.0582
    23 ( vir )           18.4441         -2.2740          4.1212         20.2913
    24 ( vir )           23.5865         -4.9249          5.2167         23.8783
    25 ( vir )           23.5865         -4.9245          5.2166         23.8787
    26 ( vir )           23.6049         -1.2744          5.3517         27.6821
    27 ( vir )           23.6049         -1.2775          5.3517         27.6791
    28 ( vir )           25.2194         -1.5425          4.8183         28.4952
    29 ( vir )           34.1947          2.0190          6.3850         42.5986
    30 ( vir )           48.5334          0.3508          6.7772         55.6614
    31 ( vir )           48.5334          0.3599          6.7772         55.6705
    32 ( vir )           58.6893          1.6444          8.0122         68.3458
   
  G0W0 HOMO-LUMO gap (eV)                                                 9.4386
  
  ------------------------------------------------------------------------------
  
 *******************************************************************************
 **                                                                           **
 **           Bethe Salpeter equation (BSE) for excitation energies           **
 **               solved without Tamm-Dancoff approximation (TDA)             **
 **                                                                           **
 *******************************************************************************
  
 BSE| No cutoff given for occupied orbitals
 BSE| No cutoff given for empty orbitals
 BSE| First occupied index                                                     1
 BSE| Last empty index (not MO index!)                                        29
 BSE| Energy of first occupied index [eV]                               -201.476
 BSE| Energy of last empty index [eV]                                     68.346
 BSE| Energy difference of first occupied index to HOMO [eV]             192.396
 BSE| Energy difference of last empty index to LUMO [eV]                  67.987
 BSE| Number of GW-corrected occupied MOs                                      3
[...]
 https://doi.org/10.1021/acs.jctc.6b00380

 M. Del Ben, O. Schuett, T. Wentz, P. Messmer, J. Hutter, J. VandeVondele.
 Comput. Phys. Commun. 187, 120-129 (2015).
 Enabling simulation at the fifth rung of DFT: Large scale RPA calculations with 
 excellent time to solution.
 https://doi.org/10.1016/j.cpc.2014.10.021

 J. Hutter, M. Iannuzzi, F. Schiffmann, J. VandeVondele.
 WIREs Comput Mol Sci. 4, 15-25 (2014).
 CP2K: atomistic simulations of condensed matter systems.
 https://doi.org/10.1002/wcms.1159

 U. Borstnik, J. VandeVondele, V. Weber, J. Hutter.
 Parallel Comput. 40, 47-58 (2014).
 Sparse matrix multiplication: The distributed block-compressed sparse row 
 library.
 https://doi.org/10.1016/j.parco.2014.03.012

 M. Del Ben, J. Hutter, J. VandeVondele.
 J. Chem. Theory Comput. 9, 2654-2671 (2013).
 Electron Correlation in the Condensed Phase from a Resolution of Identity 
 Approach Based on the Gaussian and Plane Waves Scheme.
 https://doi.org/10.1021/ct4002202

 M. Del Ben, J. Hutter, J. VandeVondele.
 J. Chem. Theory Comput. 8, 4177-4188 (2012).
 Second-Order Moller-Plesset Perturbation Theory in the Condensed Phase: An 
 Efficient and Massively Parallel Gaussian and Plane Waves Approach.
 https://doi.org/10.1021/ct300531w

 M. Guidon, J. Hutter, J. VandeVondele.
 J. Chem. Theory Comput. 5, 3010-3021 (2009).
 Robust Periodic Hartree-Fock Exchange for Large-Scale Simulations Using 
 Gaussian Basis Sets.
 https://doi.org/10.1021/ct900494g

 M. Guidon, F. Schiffmann, J. Hutter, J. VandeVondele.
 J. Chem. Phys. 128, 214104 (2008).
 Ab initio molecular dynamics using hybrid density functionals.
 https://doi.org/10.1063/1.2931945

 L. Genovese, T. Deutsch, S. Goedecker.
 J. Chem. Phys. 127, 054704 (2007).
 Efficient and accurate three-dimensional Poisson solver for surface problems.
 https://doi.org/10.1063/1.2754685

 J. VandeVondele, J. Hutter.
 J. Chem. Phys. 127, 114105 (2007).
 Gaussian basis sets for accurate calculations on molecular systems in gas and 
 condensed phases.
 https://doi.org/10.1063/1.2770708

 L. Genovese, T. Deutsch, A. Neelov, S. Goedecker, G. Beylkin.
 J. Chem. Phys. 125, 074105 (2006).
 Efficient solution of Poisson's equation with free boundary conditions.
 https://doi.org/10.1063/1.2335442

 M. Frigo, S. G. Johnson.
 Proc. IEEE 93, 216-231 (2005).
 The design and implementation of FFTW3.
 https://doi.org/10.1109/JPROC.2004.840301

 M. Krack, M. Parrinello.
 Phys. Chem. Chem. Phys. 2, 2105-2112 (2000).
 All-electron ab-initio molecular dynamics.
 https://doi.org/10.1039/b001167n

 G. Lippert, J. Hutter, M. Parrinello.
 Theor. Chem. Acc. 103, 124-140 (1999).
 The Gaussian and augmented-plane-wave density functional method for ab initio 
 molecular dynamics simulations.
 https://doi.org/10.1007/s002140050523

 J. P. Perdew, K. Burke, M. Ernzerhof.
 Phys. Rev. Lett. 77, 3865-3868 (1996).
 Generalized gradient approximation made simple.
 https://doi.org/10.1103/PhysRevLett.77.3865


 -------------------------------------------------------------------------------
 -                                                                             -
 -                                T I M I N G                                  -
 -                                                                             -
 -------------------------------------------------------------------------------
 SUBROUTINE                       CALLS  ASD         SELF TIME        TOTAL TIME
                                MAXIMUM       AVERAGE  MAXIMUM  AVERAGE  MAXIMUM
 CP2K                                 1  1.0    0.042    0.073  173.167  173.168
 qs_energies                          1  2.0    0.001    0.001  171.658  171.899
 scf_env_do_scf                       1  3.0    0.000    0.000  168.815  168.816
 scf_env_do_scf_inner_loop           59  4.0    0.002    0.004  168.815  168.816
 qs_ks_build_kohn_sham_matrix        60  7.0    0.009    0.010  128.211  128.224
 qs_ks_update_qs_env                 59  5.0    0.000    0.000  126.842  126.855
 rebuild_ks_matrix                   59  6.0    0.000    0.000  126.837  126.850
 fft_wrap_pw1pw2                   1251  9.9    0.028    0.036   71.344   72.275
 fft_wrap_pw1pw2_250                891 11.1    3.057    3.398   69.008   69.955
 fft3d_ps                          1251 11.9   28.141   31.027   57.498   58.303
 pw_poisson_solve                    60  8.0    1.068    1.175   52.108   52.126
 qs_vxc_create                       60  8.0    0.001    0.001   42.503   42.503
 xc_vxc_pw_create                    59  9.0    0.739    0.838   42.502   42.502
 ps_wavelet_solve                    60  9.0   26.981   30.165   34.314   34.537
 xc_pw_derive                       354 11.0    0.004    0.005   31.100   31.956
 mp_alltoall_d54                     60 10.0    4.779   26.750    4.779   26.750
 mp_alltoall_z22v                  1251 13.9   22.591   25.724   22.591   25.724
 xc_pw_divergence                    59 10.0    0.002    0.003   21.142   21.980
 qs_rho_update_rho_low               60  5.0    0.001    0.001   21.589   21.589
 calculate_rho_elec                  60  6.0    0.586    0.625   21.569   21.569
 xc_rho_set_and_dset_create          59 10.0    0.527    0.661   20.200   21.142
 gspace_mixing                       58  5.0    0.567    0.604   20.357   20.357
 yz_to_x                            597 12.8    1.992    2.416   13.929   16.439
 x_to_yz                            654 13.1    4.753    5.219   15.407   16.042
 density_rs2pw                       60  7.0    0.004    0.005   15.361   15.580
 broyden_mixing                      58  6.0   15.043   15.227   15.302   15.347
 sum_up_and_integrate                60  8.0    0.001    0.001   11.937   11.967
 integrate_v_rspace                  60  9.0    0.001    0.002   11.761   11.846
 potential_pw2rs                     60 10.0    0.031    0.034   11.435   11.511
 prepare_gapw_den                    60  8.0    0.001    0.001    8.595    8.737
 put_rho0_on_grid                    60  9.0    0.590    0.633    8.399    8.541
 transfer_pw2rs                     301 10.6    0.004    0.005    8.075    8.175
 transfer_rs2pw                     301  8.4    0.009    0.011    7.111    7.268
 mp_waitany                        7964 11.5    6.151    6.705    6.151    6.705
 grid_collocate_task_list            60  7.0    5.401    5.736    5.401    5.736
 transfer_pw2rs_250                 121 10.9    1.695    1.818    5.278    5.465
 mp_alltoall_d11v                  1080  9.4    2.712    5.392    2.712    5.392
 transfer_rs2pw_250                 121 10.0    1.877    2.054    4.937    5.126
 xc_functional_eval                 295 10.9    0.001    0.001    4.220    4.990
 pbe_lda_eval                       295 11.9    4.220    4.989    4.220    4.989
 pw_scatter_p                       654 12.1    4.679    4.761    4.679    4.761
 mp_alltoall_d45                     61 10.0    2.371    4.759    2.371    4.759
 pw_gather_p                        597 11.8    3.938    4.580    3.938    4.580
 pw_derive                          534 11.3    3.433    3.669    3.433    3.669
 hfx_ks_matrix                       60  8.0    0.002    0.003    3.522    3.596
 integrate_four_center               60  9.0    1.291    2.757    3.519    3.592
 integrate_vhg0_rspace               60  8.0    0.015    0.018    3.451    3.466
 mp_sum_d                          1498  6.0    1.996    2.772    1.996    2.772
 mp_sync                            725  9.4    1.501    2.767    1.501    2.767
 cp2k_distribution_to_z_slices       60  9.0    1.124    1.191    2.208    2.349
 mp2_main                             1  3.0    0.000    0.000    2.048    2.288
 pw_copy                            895 10.6    2.038    2.156    2.038    2.156
 fft_wrap_pw1pw2_90                 120 10.5    0.088    0.111    1.874    2.154
 pw_poisson_set                      61  8.9    0.002    0.003    1.912    1.931
 mp_waitall_1                     18350 12.0    0.857    1.644    0.857    1.644
 rs_grid_zero                       302 11.1    1.476    1.529    1.476    1.529
 transfer_pw2rs_90                   60 12.0    0.273    0.339    1.115    1.445
 pw_axpy                            595  9.3    1.330    1.436    1.330    1.436
 compute_vec_Sigma_x_minus_vxc_       1  4.0    0.000    0.000    1.378    1.378
 pw_copy_to_array                   597 11.8    1.237    1.355    1.237    1.355
 transfer_pw2rs_30                   60 12.0    0.813    0.904    1.248    1.340
 pw_poisson_rebuild                  60  9.0    0.000    0.000    1.109    1.135
 ps_wavelet_create                    1 10.0    0.000    0.000    1.109    1.135
 RS_z_slice_distribution              1 11.0    0.995    1.037    1.109    1.135
 pw_integral_ab_c1d_c1d_gs           60  9.0    0.881    0.889    0.982    1.061
 transfer_rs2pw_90                   60  9.0    0.253    0.284    0.893    1.018
 transfer_rs2pw_30                   60  9.0    0.470    0.499    0.970    0.999
 pw_copy_from_array                 654 12.1    0.801    0.966    0.801    0.966
 calculate_vxc_atom                  60  8.0    0.019    0.129    0.831    0.831
 mp_sendrecv_dv                    5640 10.0    0.705    0.735    0.705    0.735
 mp_sum_dm                          424  7.6    0.410    0.727    0.410    0.727
 create_qs_kind_set                   1  2.0    0.000    0.000    0.724    0.725
 read_qs_kind                         2  3.0    0.402    0.413    0.724    0.725
 mp_isend_dv                       7458 11.7    0.407    0.706    0.407    0.706
 pw_zero                            356 10.3    0.574    0.631    0.574    0.631
 gaVxcgb_GC                         118  9.0    0.013    0.629    0.013    0.629
 init_scf_run                         1  3.0    0.000    0.000    0.620    0.620
 scf_env_initial_rho_setup            1  4.0    0.000    0.000    0.613    0.613
 mp_irecv_dm3                      2172 11.5    0.274    0.511    0.274    0.511
 mp2_gpw_main                         1  4.0    0.000    0.000    0.476    0.486
 qs_scf_new_mos                      59  5.0    0.001    0.001    0.470    0.481
 transfer_pw2rs_10                   60 12.0    0.206    0.217    0.429    0.462
 powell_optimize                 175766 11.0    0.426    0.440    0.426    0.440
 mp_isendrecv_dv                  11280 12.0    0.187    0.437    0.187    0.437
 qs_init_subsys                       1  2.0    0.007    0.009    0.434    0.435
 mp_isend_dm3                      2172 11.5    0.211    0.431    0.211    0.431
 qs_env_setup                         1  3.0    0.000    0.000    0.423    0.425
 qs_env_rebuild_pw_env                2  3.5    0.000    0.000    0.422    0.424
 pw_env_rebuild                       1  5.0    0.001    0.001    0.422    0.423
 mp_sum_i                            19  9.5    0.241    0.415    0.241    0.415
 restraint_control                    1  2.0    0.000    0.000    0.240    0.414
 mp2_main_alloc_hfx                   1  4.0    0.174    0.414    0.174    0.414
 pw_grid_setup                        4  6.0    0.000    0.000    0.411    0.412
 pw_grid_setup_internal               4  7.0    0.010    0.013    0.411    0.412
 calc_screening_functions             1 10.0    0.160    0.162    0.402    0.412
 rpa_ri_compute_en                    1  5.0    0.000    0.000    0.374    0.374
 rpa_num_int                          1  6.0    0.001    0.001    0.371    0.371
 fft_wrap_pw1pw2_30                 120 10.5    0.014    0.016    0.350    0.366
 integrate_four_center_main          60 10.0    0.012    0.162    0.017    0.329
 parser_read_line                 86138  4.0    0.029    0.032    0.321    0.326
 rs_gather_matrices                  60 10.0    0.001    0.004    0.281    0.325
 pw_grid_sort                         4  8.0    0.222    0.225    0.317    0.321
 grid_integrate_task_list            60 10.0    0.043    0.319    0.043    0.319
 scale_and_distribute               120 10.0    0.298    0.318    0.298    0.318
 Vh_1c_gg_integrals                  60  8.0    0.004    0.047    0.200    0.315
 transfer_rs2pw_10                   60  9.0    0.098    0.106    0.303    0.313
 mp_max_i                           552  2.8    0.195    0.312    0.195    0.312
 parser_read_line_low                96  5.0    0.026    0.136    0.292    0.297
 broadcast_input_information         96  6.0    0.066    0.076    0.266    0.281
 calc_pair_dist_radii                 1 10.0    0.090    0.092    0.274    0.281
 cp_fm_syevd                         65  7.0    0.000    0.000    0.250    0.251
 eigensolver_symm                    60  6.0    0.002    0.002    0.250    0.250
 cp_fm_redistribute_end              65  8.0    0.116    0.207    0.118    0.209
 pw_scale                           237  9.5    0.156    0.204    0.156    0.204
 mp_sum_dv                         3211 11.9    0.149    0.194    0.149    0.194
 calculate_rho_atom                 120  9.0    0.094    0.183    0.094    0.183
 cp_fm_syevd_base                    65  8.0    0.090    0.180    0.090    0.180
 compute_GW_self_energy             100  7.0    0.001    0.001    0.153    0.176
 integrate_four_center_bin         4797 11.0    0.004    0.167    0.004    0.167
 mixing_init                          1  5.0    0.145    0.149    0.149    0.149
 rpa_num_int_RPA_matrix_operati     100  7.0    0.001    0.002    0.142    0.143
 calculate_dm_sparse                 59  6.0    0.000    0.000    0.141    0.142
 cp_dbcsr_plus_fm_fm_t               59  7.0    0.001    0.001    0.140    0.141
 mp_bcast_i_src                     384  7.0    0.110    0.134    0.110    0.134
 parallel_gemm_fm                   338  8.6    0.000    0.000    0.120    0.123
 parallel_gemm_fm_gemm              338  9.6    0.000    0.000    0.120    0.122
 cp_fm_gemm                         338 10.6    0.119    0.122    0.119    0.122
 compute_GW_self_energy_deep        100  8.0    0.037    0.059    0.094    0.117
 scf_post_calculation_gpw             1  3.0    0.000    0.000    0.110    0.110
 write_available_results              1  4.0    0.000    0.000    0.109    0.110
 write_mo_free_results                1  5.0    0.013    0.014    0.109    0.109
 copy_dbcsr_to_fm                    78  6.4    0.001    0.002    0.093    0.104
 dbcsr_multiply_generic              80  8.1    0.004    0.004    0.102    0.103
 fft_wrap_pw1pw2_10                 120 10.5    0.003    0.004    0.084    0.099
 mp_bcast_am_src                     96  7.0    0.077    0.081    0.087    0.099
 sort_shells                          4  9.0    0.095    0.097    0.095    0.097
 calc_mat_Q                         100  8.0    0.000    0.000    0.092    0.096
 contract_S_to_Q                    100  9.0    0.000    0.000    0.092    0.095
 dbcsr_complete_redistribute        200  8.4    0.008    0.012    0.086    0.087
 mp2_ri_gpw_compute_in                1  5.0    0.000    0.000    0.086    0.087
 xc_pw_smooth                        59 10.0    0.000    0.000    0.062    0.086
 mp2_ri_gpw_compute_in_loop           1  6.0    0.000    0.000    0.082    0.083
 update_ks_atom                      60  8.0    0.003    0.006    0.063    0.083
 mp_bcast_dm                        240  9.0    0.060    0.080    0.060    0.080
 contract_B_L                         4  7.0    0.001    0.001    0.072    0.077
 cp_fm_to_fm_submat_general         112 10.1    0.064    0.068    0.064    0.068
 dbcsr_desymmetrize_deep             80  7.4    0.002    0.002    0.056    0.068
 vxc_of_r_new                       236  9.0    0.000    0.011    0.001    0.067
 qs_energies_init_hamiltonians        1  3.0    0.000    0.000    0.065    0.065
 build_core_hamiltonian_matrix        1  4.0    0.000    0.000    0.060    0.060
 overlap_condnum                      1  5.0    0.000    0.000    0.058    0.059
 offload_free_buffer                 68  8.3    0.040    0.054    0.040    0.054
 cp_fm_cholesky_invert              101  8.0    0.051    0.053    0.051    0.053
 dbt_total                            8  8.0    0.000    0.000    0.052    0.052
 pw_grid_assign                       4  8.0    0.050    0.051    0.051    0.051
 make_m2s                           160  9.1    0.003    0.003    0.049    0.051
 copy_fm_to_dbcsr                   122  8.1    0.000    0.001    0.049    0.050
 dbt_contract                         4  9.0    0.001    0.001    0.049    0.049
 mp_alltoall_i22                    280  9.1    0.037    0.049    0.037    0.049
 start_bse_calculation                1  7.0    0.000    0.000    0.049    0.049
 hirshfeld_integration                1  6.0    0.000    0.001    0.048    0.048
 calculate_hirshfeld_normalizat       1  6.0    0.000    0.001    0.047    0.048
 mp_irecv_dv                       7413 11.7    0.027    0.045    0.027    0.045
 cp_fm_redistribute_start            65  8.0    0.034    0.035    0.042    0.044
 compute_Erpa_by_freq_int           100  8.0    0.001    0.001    0.044    0.044
 mp_sum_l                           836  5.7    0.033    0.043    0.033    0.043
 cp_fm_cholesky_decompose           102  9.0    0.043    0.043    0.043    0.043
 integrate_four_center_getP          60 10.0    0.005    0.005    0.031    0.037
 dbt_tas_multiply                     8 11.5    0.000    0.000    0.035    0.035
 dbt_tas_total                        8 12.5    0.001    0.001    0.035    0.035
 multiply_cannon                     80  9.1    0.006    0.007    0.034    0.035
 arnoldi_conjugate_gradient           5  6.0    0.001    0.001    0.035    0.035
 integrate_four_center_load          60 10.0    0.000    0.001    0.020    0.032
 mp_cart_create                     342 10.5    0.027    0.031    0.027    0.032
 hfx_load_balance                     1 11.0    0.000    0.000    0.020    0.032
 diagonalize_C                        1  8.0    0.000    0.000    0.031    0.031
 hfx_load_balance_range               1 12.0    0.000    0.000    0.016    0.029
 mp_comm_split_direct                48 14.5    0.018    0.028    0.018    0.028
 dbcsr_finalize                    1359 10.7    0.005    0.008    0.018    0.028
 integrate_four_center_dist_KS       60 10.0    0.005    0.005    0.027    0.027
 mp_alltoall_i11v                   680  9.3    0.026    0.026    0.026    0.026
 mp2_main_free_hfx                    1  4.0    0.010    0.023    0.010    0.023
 mp_maxloc_dv                      1515  1.0    0.021    0.023    0.021    0.023
 postprocess_bse                      1  9.0    0.000    0.000    0.022    0.022
 make_images                        160 10.1    0.005    0.005    0.021    0.022
 multiply_cannon_loop                80 10.1    0.005    0.005    0.020    0.021
 dbcsr_sym_matrix_vector_mult       142  7.0    0.002    0.002    0.015    0.021
 mp_bcast_iv                        128  6.5    0.010    0.021    0.010    0.021
 cp_fm_power                          2  7.5    0.000    0.000    0.020    0.020
 hybrid_alltoall_any                240 10.9    0.002    0.002    0.019    0.020
 pw_grid_remap                        4  8.0    0.008    0.008    0.016    0.019
 calculate_rho_atom_coeff            60  6.0    0.003    0.009    0.019    0.019
 dbcsr_crop_matrix                  236 10.0    0.002    0.002    0.017    0.018
 dbt_distribution_new_expert         72 10.0    0.001    0.001    0.018    0.018
 -------------------------------------------------------------------------------

 The number of warnings for this run is : 1
 
 -------------------------------------------------------------------------------
  **** **** ******  **  PROGRAM ENDED AT                 2025-03-19 01:27:03.128
 ***** ** ***  *** **   PROGRAM RAN ON                              i02r04c05s08
 **    ****   ******    PROGRAM RAN BY                                   di38fab
 ***** **    ** ** **   PROGRAM PROCESS ID                               2350890
  **** **  *******  **  PROGRAM STOPPED IN /hppfs/scratch/04/di38fab/05_MOL/W4-1
                                           1+ALK/bh/aug-cc-pVDZ/GW+BSE
