 DBCSR| CPU Multiplication driver                                           BLAS (U)
 DBCSR| Multrec recursion limit                                              512 (U)
 DBCSR| Multiplication stack size                                           1000 (D)
 DBCSR| Maximum elements for images                                    UNLIMITED (U)
 DBCSR| Multiplicative factor virtual images                                   1 (U)
 DBCSR| Use multiplication densification                                       T (D)
 DBCSR| Multiplication size stacks                                             3 (U)
 DBCSR| Use memory pool for CPU allocation                                     F (U)
 DBCSR| Number of 3D layers                                               SINGLE (U)
 DBCSR| Use MPI memory allocation                                              F (U)
 DBCSR| Use RMA algorithm                                                      F (U)
 DBCSR| Use Communication thread                                               T (U)
 DBCSR| Communication thread load                                             75 (D)
 DBCSR| MPI: My process id                                                     0
 DBCSR| MPI: Number of processes                                              48
 DBCSR| OMP: Current number of threads                                         4
 DBCSR| OMP: Max number of threads                                             4
 DBCSR| Split modifier for TAS multiplication algorithm                  1.0E+00 (U)


  **** **** ******  **  PROGRAM STARTED AT               2025-03-19 00:34:21.004
 ***** ** ***  *** **   PROGRAM STARTED ON                          i02r02c01s09
 **    ****   ******    PROGRAM STARTED BY                               di38fab
 ***** **    ** ** **   PROGRAM PROCESS ID                               2071066
  **** **  *******  **  PROGRAM STARTED IN /hppfs/scratch/04/di38fab/05_MOL/W4-1
                                           1+ALK/nh/aug-cc-pVDZ/GW+BSE

 CP2K| version string:                 CP2K version 2025.1 (Development Version)
 CP2K| source code revision number:                                  git:d2e611a
 CP2K| cp2kflags: omp libint fftw3 libxc parallel scalapack max_contr=4         
 CP2K| is freely available from                            https://www.cp2k.org/
 CP2K| Program compiled at                       Thu 06 Mar 2025 05:09:20 PM CET
 CP2K| Program compiled on                                               login02
 CP2K| Program compiled for                                        Supermuc-foss
 CP2K| Data directory path                  /hppfs/work/pn36zo/di38fab/cp2k/data
 CP2K| Input file name                                                    GW.inp

 GLOBAL| Force Environment number                                              1
 GLOBAL| Basis set file name            /hppfs/scratch/04/di38fab/04_TMD/BASIS_A
 GLOBAL| Potential file name            /hppfs/work/pn36zo/di38fab/cp2k/data/ALL
 GLOBAL| MM Potential file name                                     MM_POTENTIAL
 GLOBAL| Coordinate file name                                      __STD_INPUT__
 GLOBAL| Method name                                                        CP2K
 GLOBAL| Project name                                                       MoS2
 GLOBAL| Run type                                                         ENERGY
 GLOBAL| FFT library                                                       FFTW3
 GLOBAL| Diagonalization library                                       ScaLAPACK
 GLOBAL| DGEMM library                                                      BLAS
 GLOBAL| Orthonormality check for eigenvectors                          DISABLED
 GLOBAL| Matrix multiplication library                                 ScaLAPACK
 GLOBAL| All-to-all communication in single precision                          F
 GLOBAL| FFTs using library dependent lengths                                  F
 GLOBAL| Grid backend                                                       AUTO
 GLOBAL| Global print level                                               MEDIUM
 GLOBAL| MPI I/O enabled                                                       T
 GLOBAL| Total number of message passing processes                            48
 GLOBAL| Number of threads for this process                                    4
 GLOBAL| This output is from process                                           0
 GLOBAL| OpenMP stack size per thread (OMP_STACKSIZE)                    default
 GLOBAL| CPU model name             Intel(R) Xeon(R) Platinum 8174 CPU @ 3.10GHz

 MEMORY| system memory details [Kb]
 MEMORY|                        rank 0           min           max       average
 MEMORY| MemTotal             98436664      98436644      98436664      98436659
 MEMORY| MemFree              83874004      83870224      84017024      83908670
 MEMORY| Buffers                     0             0             0             0
 MEMORY| Cached                2442512       2432252       2442512       2438599
 MEMORY| Slab                  1268600       1219484       1268600       1251184
 MEMORY| SReclaimable           271708        268720        271708        270513
 MEMORY| MemLikelyFree        86588224      86579872      86720468      86617782


 *** Fundamental physical constants (SI units) ***

 *** Literature: B. J. Mohr and B. N. Taylor,
 ***             CODATA recommended values of the fundamental physical
 ***             constants: 2006, Web Version 5.1
 ***             http://physics.nist.gov/constants

 Speed of light in vacuum [m/s]                             2.99792458000000E+08
 Magnetic constant or permeability of vacuum [N/A**2]       1.25663706143592E-06
 Electric constant or permittivity of vacuum [F/m]          8.85418781762039E-12
 Planck constant (h) [J*s]                                  6.62606896000000E-34
 Planck constant (h-bar) [J*s]                              1.05457162825177E-34
 Elementary charge [C]                                      1.60217648700000E-19
 Electron mass [kg]                                         9.10938215000000E-31
 Electron g factor [ ]                                     -2.00231930436220E+00
 Proton mass [kg]                                           1.67262163700000E-27
 Fine-structure constant                                    7.29735253760000E-03
 Rydberg constant [1/m]                                     1.09737315685270E+07
 Avogadro constant [1/mol]                                  6.02214179000000E+23
 Boltzmann constant [J/K]                                   1.38065040000000E-23
 Atomic mass unit [kg]                                      1.66053878200000E-27
 Bohr radius [m]                                            5.29177208590000E-11

 *** Conversion factors ***

 [u] -> [a.u.]                                              1.82288848426455E+03
 [Angstrom] -> [Bohr] = [a.u.]                              1.88972613288564E+00
 [a.u.] = [Bohr] -> [Angstrom]                              5.29177208590000E-01
 [a.u.] -> [s]                                              2.41888432650478E-17
 [a.u.] -> [fs]                                             2.41888432650478E-02
 [a.u.] -> [J]                                              4.35974393937059E-18
 [a.u.] -> [N]                                              8.23872205491840E-08
 [a.u.] -> [K]                                              3.15774647902944E+05
 [a.u.] -> [kJ/mol]                                         2.62549961709828E+03
 [a.u.] -> [kcal/mol]                                       6.27509468713739E+02
 [a.u.] -> [Pa]                                             2.94210107994716E+13
 [a.u.] -> [bar]                                            2.94210107994716E+08
 [a.u.] -> [atm]                                            2.90362800883016E+08
 [a.u.] -> [eV]                                             2.72113838565563E+01
 [a.u.] -> [Hz]                                             6.57968392072181E+15
 [a.u.] -> [1/cm] (wave numbers)                            2.19474631370540E+05
 [a.u./Bohr**2] -> [1/cm]                                   5.14048714338585E+03
 

 CELL_TOP| Volume [angstrom^3]:                                     27000.000000
 CELL_TOP| Vector a [angstrom    30.000     0.000     0.000   |a| =    30.000000
 CELL_TOP| Vector b [angstrom     0.000    30.000     0.000   |b| =    30.000000
 CELL_TOP| Vector c [angstrom     0.000     0.000    30.000   |c| =    30.000000
 CELL_TOP| Angle (b,c), alpha [degree]:                                90.000000
 CELL_TOP| Angle (a,c), beta  [degree]:                                90.000000
 CELL_TOP| Angle (a,b), gamma [degree]:                                90.000000
 CELL_TOP| Numerically orthorhombic:                                         YES
 CELL_TOP| Periodicity                                                      NONE

 GENERATE|  Preliminary Number of Bonds generated:                             0
 GENERATE|  Achieved consistency in connectivity generation.

 CELL| Volume [angstrom^3]:                                         27000.000000
 CELL| Vector a [angstrom]:      30.000     0.000     0.000   |a| =    30.000000
 CELL| Vector b [angstrom]:       0.000    30.000     0.000   |b| =    30.000000
 CELL| Vector c [angstrom]:       0.000     0.000    30.000   |c| =    30.000000
 CELL| Angle (b,c), alpha [degree]:                                    90.000000
 CELL| Angle (a,c), beta  [degree]:                                    90.000000
 CELL| Angle (a,b), gamma [degree]:                                    90.000000
 CELL| Numerically orthorhombic:                                             YES
 CELL| Periodicity                                                          NONE

 CELL_REF| Volume [angstrom^3]:                                     27000.000000
 CELL_REF| Vector a [angstrom    30.000     0.000     0.000   |a| =    30.000000
 CELL_REF| Vector b [angstrom     0.000    30.000     0.000   |b| =    30.000000
 CELL_REF| Vector c [angstrom     0.000     0.000    30.000   |c| =    30.000000
 CELL_REF| Angle (b,c), alpha [degree]:                                90.000000
 CELL_REF| Angle (a,c), beta  [degree]:                                90.000000
 CELL_REF| Angle (a,b), gamma [degree]:                                90.000000
 CELL_REF| Numerically orthorhombic:                                         YES
 CELL_REF| Periodicity                                                      NONE

 *******************************************************************************
 *******************************************************************************
 **                                                                           **
 **     #####                         ##              ##                      **
 **    ##   ##            ##          ##              ##                      **
 **   ##     ##                       ##            ######                    **
 **   ##     ##  ##   ##  ##   #####  ##  ##   ####   ##    #####    #####    **
 **   ##     ##  ##   ##  ##  ##      ## ##   ##      ##   ##   ##  ##   ##   **
 **   ##  ## ##  ##   ##  ##  ##      ####     ###    ##   ######   ######    **
 **    ##  ###   ##   ##  ##  ##      ## ##      ##   ##   ##       ##        **
 **     #######   #####   ##   #####  ##  ##  ####    ##    #####   ##        **
 **           ##                                                    ##        **
 **                                                                           **
 **                                                ... make the atoms dance   **
 **                                                                           **
 **            Copyright (C) by CP2K developers group (2000-2025)             **
 **                      J. Chem. Phys. 152, 194103 (2020)                    **
 **                                                                           **
 *******************************************************************************

 DFT| Spin restricted Kohn-Sham (RKS) calculation                            RKS
 DFT| Multiplicity                                                             1
 DFT| Number of spin states                                                    1
 DFT| Charge                                                                   0
 DFT| Self-interaction correction (SIC)                                       NO
 DFT| Cutoffs: density                                              1.000000E-10
 DFT|          gradient                                             1.000000E-10
 DFT|          tau                                                  1.000000E-10
 DFT|          cutoff_smoothing_range                               0.000000E+00
 DFT| XC density smoothing                                                  NONE
 DFT| XC derivatives                                                          PW

 FUNCTIONAL| PBE:
 FUNCTIONAL| J.P.Perdew, K.Burke, M.Ernzerhof, Phys. Rev. Letter, vol. 77, n 18,
 FUNCTIONAL|  pp. 3865-3868, (1996)sx=0.750sc=1.000{spin unpolarized}           


 QS| Method:                                                                GAPW
 QS| Density plane wave grid type                        NON-SPHERICAL FULLSPACE
 QS| Number of grid levels:                                                    4
 QS| Density cutoff [a.u.]:                                                250.0
 QS| Multi grid cutoff [a.u.]: 1) grid level                               250.0
 QS|                           2) grid level                                83.3
 QS|                           3) grid level                                27.8
 QS|                           4) grid level                                 9.3
 QS| Grid level progression factor:                                          3.0
 QS| Relative density cutoff [a.u.]:                                        50.0
 QS| Interaction thresholds: eps_pgf_orb:                                1.0E-12
 QS|                         eps_filter_matrix:                          0.0E+00
 QS|                         eps_core_charge:                            1.0E-14
 QS|                         eps_rho_gspace:                             1.0E-12
 QS|                         eps_rho_rspace:                             1.0E-12
 QS|                         eps_gvg_rspace:                             1.0E-06
 QS|                         eps_ppl:                                    1.0E-02
 QS|                         eps_ppnl:                                   1.0E-08
 QS| GAPW|      One center basis from orbital basis primitives
 QS| GAPW|                   eps_fit:                                    1.0E-04
 QS| GAPW|                   eps_iso:                                    1.0E-12
 QS| GAPW|                   eps_svd:                                    1.0E-08
 QS| GAPW|                   eps_cpc:                                    1.0E-12
 QS| GAPW|   atom-r-grid: quadrature:                                     GC_LOG
 QS| GAPW|      atom-s-grid:  max l :                                          4
 QS| GAPW|      max_l_rho0 :                                                   2


 ATOMIC KIND INFORMATION

  1. Atomic kind: N                                     Number of atoms:       1

     Orbital Basis Set                                               aug-cc-pVDZ

       Number of orbital shell sets:                                           6
       Number of orbital shells:                                               9
       Number of primitive Cartesian functions:                               17
       Number of Cartesian basis functions:                                   25
       Number of spherical basis functions:                                   23
       Norm type:                                                              2

       Normalised Cartesian orbitals:

                        Set   Shell   Orbital            Exponent    Coefficient

                          1       1    1px               0.056110       0.038926
                          1       1    1py               0.056110       0.038926
                          1       1    1pz               0.056110       0.038926

                          2       1    1s                0.061240       0.087738

                          3       1    1px              13.550000       1.479258
                                                         2.917000       1.180072
                                                         0.797300       0.548036
                                                         0.218500       0.098423
                          3       1    1py              13.550000       1.479258
                                                         2.917000       1.180072
                                                         0.797300       0.548036
                                                         0.218500       0.098423
                          3       1    1pz              13.550000       1.479258
                                                         2.917000       1.180072
                                                         0.797300       0.548036
                                                         0.218500       0.098423

                          3       2    2px              13.550000       0.000000
                                                         2.917000       0.000000
                                                         0.797300       0.000000
                                                         0.218500       0.212939
                          3       2    2py              13.550000       0.000000
                                                         2.917000       0.000000
                                                         0.797300       0.000000
                                                         0.218500       0.212939
                          3       2    2pz              13.550000       0.000000
                                                         2.917000       0.000000
                                                         0.797300       0.000000
                                                         0.218500       0.212939

                          4       1    1s             9046.000000       0.462754
                                                      1357.000000       0.858723
                                                       309.300000       1.440591
                                                        87.730000       2.108533
                                                        28.560000       2.454153
                                                        10.210000       1.825915
                                                         3.838000       0.543758
                                                         0.746600       0.008838
                                                         0.224800      -0.000666

                          4       2    2s             9046.000000      -0.101145
                                                      1357.000000      -0.192492
                                                       309.300000      -0.314968
                                                        87.730000      -0.501437
                                                        28.560000      -0.593976
                                                        10.210000      -0.643503
                                                         3.838000      -0.238093
                                                         0.746600       0.314268
                                                         0.224800       0.134678

                          4       3    3s             9046.000000       0.000000
                                                      1357.000000       0.000000
                                                       309.300000       0.000000
                                                        87.730000       0.000000
                                                        28.560000       0.000000
                                                        10.210000       0.000000
                                                         3.838000       0.000000
                                                         0.746600       0.000000
                                                         0.224800       0.232679

                          5       1    1dx2              0.230000       0.125728
                          5       1    1dxy              0.230000       0.217768
                          5       1    1dxz              0.230000       0.217768
                          5       1    1dy2              0.230000       0.125728
                          5       1    1dyz              0.230000       0.217768
                          5       1    1dz2              0.230000       0.125728

                          6       1    1dx2              0.817000       1.155575
                          6       1    1dxy              0.817000       2.001514
                          6       1    1dxz              0.817000       2.001514
                          6       1    1dy2              0.817000       1.155575
                          6       1    1dyz              0.817000       2.001514
                          6       1    1dz2              0.817000       1.155575

     RI Auxiliary Basis Set                                    aug-cc-pVDZ-OPTRI

       Number of orbital shell sets:                                          17
       Number of orbital shells:                                              17
       Number of primitive Cartesian functions:                               17
       Number of Cartesian basis functions:                                   88
       Number of spherical basis functions:                                   69
       Norm type:                                                              2

       Normalised Cartesian orbitals:

                        Set   Shell   Orbital            Exponent    Coefficient

                          1       1    1s                0.091449       0.118521

                          2       1    1px               0.115183       0.095648
                          2       1    1py               0.115183       0.095648
                          2       1    1pz               0.115183       0.095648

                          3       1    1px               0.322548       0.346484
                          3       1    1py               0.322548       0.346484
                          3       1    1pz               0.322548       0.346484

                          4       1    1dx2              0.422464       0.364369
                          4       1    1dxy              0.422464       0.631106
                          4       1    1dxz              0.422464       0.631106
                          4       1    1dy2              0.422464       0.364369
                          4       1    1dyz              0.422464       0.631106
                          4       1    1dz2              0.422464       0.364369

                          5       1    1fx3              0.510986       0.324994
                          5       1    1fx2y             0.510986       0.726708
                          5       1    1fx2z             0.510986       0.726708
                          5       1    1fxy2             0.510986       0.726708
                          5       1    1fxyz             0.510986       1.258694
                          5       1    1fxz2             0.510986       0.726708
                          5       1    1fy3              0.510986       0.324994
                          5       1    1fy2z             0.510986       0.726708
                          5       1    1fyz2             0.510986       0.726708
                          5       1    1fz3              0.510986       0.324994

                          6       1    1px               0.679523       0.879418
                          6       1    1py               0.679523       0.879418
                          6       1    1pz               0.679523       0.879418

                          7       1    1s                0.726628       0.560911

                          8       1    1fx3              1.397681       3.126962
                          8       1    1fx2y             1.397681       6.992099
                          8       1    1fx2z             1.397681       6.992099
                          8       1    1fxy2             1.397681       6.992099
                          8       1    1fxyz             1.397681      12.110671
                          8       1    1fxz2             1.397681       6.992099
                          8       1    1fy3              1.397681       3.126962
                          8       1    1fy2z             1.397681       6.992099
                          8       1    1fyz2             1.397681       6.992099
                          8       1    1fz3              1.397681       3.126962

                          9       1    1px               1.431573       2.232066
                          9       1    1py               1.431573       2.232066
                          9       1    1pz               1.431573       2.232066

                         10       1    1gx4              1.484177       3.296257
                         10       1    1gx3y             1.484177       8.721077
                         10       1    1gx3z             1.484177       8.721077
                         10       1    1gx2y2            1.484177      11.258862
                         10       1    1gx2yz            1.484177      19.500921
                         10       1    1gx2z2            1.484177      11.258862
                         10       1    1gxy3             1.484177       8.721077
                         10       1    1gxy2z            1.484177      19.500921
                         10       1    1gxyz2            1.484177      19.500921
                         10       1    1gxz3             1.484177       8.721077
                         10       1    1gy4              1.484177       3.296257
                         10       1    1gy3z             1.484177       8.721077
                         10       1    1gy2z2            1.484177      11.258862
                         10       1    1gyz3             1.484177       8.721077
                         10       1    1gz4              1.484177       3.296257

                         11       1    1dx2              1.846235       4.812954
                         11       1    1dxy              1.846235       8.336280
                         11       1    1dxz              1.846235       8.336280
                         11       1    1dy2              1.846235       4.812954
                         11       1    1dyz              1.846235       8.336280
                         11       1    1dz2              1.846235       4.812954

                         12       1    1s                2.651372       1.480857

                         13       1    1px               3.015942       5.665247
                         13       1    1py               3.015942       5.665247
                         13       1    1pz               3.015942       5.665247

                         14       1    1dx2              3.588066      15.396259
                         14       1    1dxy              3.588066      26.667102
                         14       1    1dxz              3.588066      26.667102
                         14       1    1dy2              3.588066      15.396259
                         14       1    1dyz              3.588066      26.667102
                         14       1    1dz2              3.588066      15.396259

                         15       1    1fx3              4.092837      35.075951
                         15       1    1fx2y             4.092837      78.432212
                         15       1    1fx2z             4.092837      78.432212
                         15       1    1fxy2             4.092837      78.432212
                         15       1    1fxyz             4.092837     135.848576
                         15       1    1fxz2             4.092837      78.432212
                         15       1    1fy3              4.092837      35.075951
                         15       1    1fy2z             4.092837      78.432212
                         15       1    1fyz2             4.092837      78.432212
                         15       1    1fz3              4.092837      35.075951

                         16       1    1dx2              6.973227      49.251404
                         16       1    1dxy              6.973227      85.305933
                         16       1    1dxz              6.973227      85.305933
                         16       1    1dy2              6.973227      49.251404
                         16       1    1dyz              6.973227      85.305933
                         16       1    1dz2              6.973227      49.251404

                         17       1    1s                9.674522       3.909599

       Atomic covalent radius [Angstrom]:                                  0.750

       Atomic van der Waals radius [Angstrom]:                             1.550

     The atoms of this atomic kind are PAW atoms (GAPW):
       Hard Gaussian function radius:                                      1.512
       Rho0 radius:                                                        1.512
       Maximum GTO radius used for PAW projector construction:            24.566

     GAPW Soft Basis Set                                        aug-cc-pVDZ_soft

       Number of orbital shell sets:                                           6
       Number of orbital shells:                                               9
       Number of primitive Cartesian functions:                               10
       Number of Cartesian basis functions:                                   25
       Number of spherical basis functions:                                   23
       Norm type:                                                              2

       Normalised Cartesian orbitals:

                        Set   Shell   Orbital            Exponent    Coefficient

                          1       1    1px               0.056110       0.038926
                          1       1    1py               0.056110       0.038926
                          1       1    1pz               0.056110       0.038926

                          2       1    1s                0.061240       0.087738

                          3       1    1px               2.917000       1.180072
                                                         0.797300       0.548036
                                                         0.218500       0.098423
                          3       1    1py               2.917000       1.180072
                                                         0.797300       0.548036
                                                         0.218500       0.098423
                          3       1    1pz               2.917000       1.180072
                                                         0.797300       0.548036
                                                         0.218500       0.098423

                          3       2    2px               2.917000       0.000000
                                                         0.797300       0.000000
                                                         0.218500       0.212939
                          3       2    2py               2.917000       0.000000
                                                         0.797300       0.000000
                                                         0.218500       0.212939
                          3       2    2pz               2.917000       0.000000
                                                         0.797300       0.000000
                                                         0.218500       0.212939

                          4       1    1s                3.838000       0.543758
                                                         0.746600       0.008838
                                                         0.224800      -0.000666

                          4       2    2s                3.838000      -0.238093
                                                         0.746600       0.314268
                                                         0.224800       0.134678

                          4       3    3s                3.838000       0.000000
                                                         0.746600       0.000000
                                                         0.224800       0.232679

                          5       1    1dx2              0.230000       0.125728
                          5       1    1dxy              0.230000       0.217768
                          5       1    1dxz              0.230000       0.217768
                          5       1    1dy2              0.230000       0.125728
                          5       1    1dyz              0.230000       0.217768
                          5       1    1dz2              0.230000       0.125728

                          6       1    1dx2              0.817000       1.155575
                          6       1    1dxy              0.817000       2.001514
                          6       1    1dxz              0.817000       2.001514
                          6       1    1dy2              0.817000       1.155575
                          6       1    1dyz              0.817000       2.001514
                          6       1    1dz2              0.817000       1.155575

     AE Potential information for                                            ALL

       Description:                                       All-electron potential
                                          Krack, Parrinello, PCCP 2, 2105 (2000)

       Gaussian exponent of the core charge distribution:               5.979100
       Electronic configuration (s p d ...):                           4   3   0

  2. Atomic kind: H                                     Number of atoms:       1

     Orbital Basis Set                                               aug-cc-pVDZ

       Number of orbital shell sets:                                           4
       Number of orbital shells:                                               5
       Number of primitive Cartesian functions:                                7
       Number of Cartesian basis functions:                                    9
       Number of spherical basis functions:                                    9
       Norm type:                                                              2

       Normalised Cartesian orbitals:

                        Set   Shell   Orbital            Exponent    Coefficient

                          1       1    1s                0.029740       0.051041

                          2       1    1s               13.010000       0.096107
                                                         1.962000       0.163020
                                                         0.444600       0.185545
                                                         0.122000       0.073744

                          2       2    2s               13.010000       0.000000
                                                         1.962000       0.000000
                                                         0.444600       0.000000
                                                         0.122000       0.147123

                          3       1    1px               0.141000       0.123158
                          3       1    1py               0.141000       0.123158
                          3       1    1pz               0.141000       0.123158

                          4       1    1px               0.727000       0.956881
                          4       1    1py               0.727000       0.956881
                          4       1    1pz               0.727000       0.956881

     RI Auxiliary Basis Set                                    aug-cc-pVDZ-OPTRI

       Number of orbital shell sets:                                           8
       Number of orbital shells:                                               8
       Number of primitive Cartesian functions:                                8
       Number of Cartesian basis functions:                                   24
       Number of spherical basis functions:                                   22
       Norm type:                                                              2

       Normalised Cartesian orbitals:

                        Set   Shell   Orbital            Exponent    Coefficient

                          1       1    1s                0.081394       0.108606

                          2       1    1px               0.273202       0.281543
                          2       1    1py               0.273202       0.281543
                          2       1    1pz               0.273202       0.281543

                          3       1    1s                0.286540       0.279125

                          4       1    1dx2              0.757634       1.012660
                          4       1    1dxy              0.757634       1.753978
                          4       1    1dxz              0.757634       1.753978
                          4       1    1dy2              0.757634       1.012660
                          4       1    1dyz              0.757634       1.753978
                          4       1    1dz2              0.757634       1.012660

                          5       1    1px               1.251075       1.886011
                          5       1    1py               1.251075       1.886011
                          5       1    1pz               1.251075       1.886011

                          6       1    1s                1.320036       0.877707

                          7       1    1dx2              2.604730       8.790108
                          7       1    1dxy              2.604730      15.224913
                          7       1    1dxz              2.604730      15.224913
                          7       1    1dy2              2.604730       8.790108
                          7       1    1dyz              2.604730      15.224913
                          7       1    1dz2              2.604730       8.790108

                          8       1    1px               2.667161       4.858494
                          8       1    1py               2.667161       4.858494
                          8       1    1pz               2.667161       4.858494

       Atomic covalent radius [Angstrom]:                                  0.320

       Atomic van der Waals radius [Angstrom]:                             1.090

     The atoms of this atomic kind are PAW atoms (GAPW):
       Hard Gaussian function radius:                                      1.200
       Rho0 radius:                                                        1.200
       Maximum GTO radius used for PAW projector construction:            24.566

     GAPW Soft Basis Set                                        aug-cc-pVDZ_soft

       Number of orbital shell sets:                                           4
       Number of orbital shells:                                               5
       Number of primitive Cartesian functions:                                6
       Number of Cartesian basis functions:                                    9
       Number of spherical basis functions:                                    9
       Norm type:                                                              2

       Normalised Cartesian orbitals:

                        Set   Shell   Orbital            Exponent    Coefficient

                          1       1    1s                0.029740       0.051041

                          2       1    1s                1.962000       0.163020
                                                         0.444600       0.185545
                                                         0.122000       0.073744

                          2       2    2s                1.962000       0.000000
                                                         0.444600       0.000000
                                                         0.122000       0.147123

                          3       1    1px               0.141000       0.123158
                          3       1    1py               0.141000       0.123158
                          3       1    1pz               0.141000       0.123158

                          4       1    1px               0.727000       0.956881
                          4       1    1py               0.727000       0.956881
                          4       1    1pz               0.727000       0.956881

     AE Potential information for                                            ALL

       Description:                                       All-electron potential
                                          Krack, Parrinello, PCCP 2, 2105 (2000)

       Gaussian exponent of the core charge distribution:              12.500000
       Electronic configuration (s p d ...):                           1   0   0


 MOLECULE KIND INFORMATION


 All atoms are their own molecule, skipping detailed information


 TOTAL NUMBERS AND MAXIMUM NUMBERS

  Total number of            - Atomic kinds:                                   2
                             - Atoms:                                          2
                             - Shell sets:                                    10
                             - Shells:                                        14
                             - Primitive Cartesian functions:                 24
                             - Cartesian basis functions:                     34
                             - Spherical basis functions:                     32

  Maximum angular momentum of the orbital basis functions:                     2


 MODULE QUICKSTEP: ATOMIC COORDINATES IN ANGSTROM

   Atom Kind Element         X             Y             Z       Z(eff)     Mass
      1    1 N     7     15.518596     15.000000     15.000000   7.0000  14.0067
      2    2 H     1     14.481404     15.000000     15.000000   1.0000   1.0079



 SCF PARAMETERS         Density guess:                                    ATOMIC
                        --------------------------------------------------------
                        max_scf:                                             500
                        max_scf_history:                                       0
                        max_diis:                                              4
                        --------------------------------------------------------
                        eps_scf:                                        1.00E-06
                        eps_scf_history:                                0.00E+00
                        eps_diis:                                       1.00E-01
                        eps_eigval:                                     1.00E-05
                        --------------------------------------------------------
                        level_shift [a.u.]:                             0.000000
                        added MOs                                        28    0
                        --------------------------------------------------------
                        Mixing method:                            BROYDEN_MIXING
                                                charge density mixing in g-space
                        --------------------------------------------------------
                        No outer SCF

 PW_GRID| Information for grid number                                          1
 PW_GRID| Grid distributed over                                    48 processors
 PW_GRID| Real space group dimensions                                    48    1
 PW_GRID| the grid is blocked:                                                NO
 PW_GRID| Cutoff [a.u.]                                                    250.0
 PW_GRID| spherical cutoff:                                                   NO
 PW_GRID|   Bounds   1           -202     202                Points:         405
 PW_GRID|   Bounds   2           -202     202                Points:         405
 PW_GRID|   Bounds   3           -202     202                Points:         405
 PW_GRID| Volume element (a.u.^3)  0.2743E-02     Volume (a.u.^3)    182205.0337
 PW_GRID| Grid span                                                    FULLSPACE
 PW_GRID|   Distribution                         Average         Max         Min
 PW_GRID|   G-Vectors                          1383960.9     1384290     1383885
 PW_GRID|   G-Rays                                3417.2        3418        3417
 PW_GRID|   Real Space Points                  1383960.9     1476225     1312200

 PW_GRID| Information for grid number                                          2
 PW_GRID| Number of the reference grid                                         1
 PW_GRID| Grid distributed over                                    48 processors
 PW_GRID| Real space group dimensions                                    48    1
 PW_GRID| the grid is blocked:                                                NO
 PW_GRID| Cutoff [a.u.]                                                     83.3
 PW_GRID| spherical cutoff:                                                   NO
 PW_GRID|   Bounds   1           -120     119                Points:         240
 PW_GRID|   Bounds   2           -120     119                Points:         240
 PW_GRID|   Bounds   3           -120     119                Points:         240
 PW_GRID| Volume element (a.u.^3)  0.1318E-01     Volume (a.u.^3)    182205.0337
 PW_GRID| Grid span                                                    FULLSPACE
 PW_GRID|   Distribution                         Average         Max         Min
 PW_GRID|   G-Vectors                           288000.0      288720      287520
 PW_GRID|   G-Rays                                1200.0        1203        1198
 PW_GRID|   Real Space Points                   288000.0      288000      288000

 PW_GRID| Information for grid number                                          3
 PW_GRID| Number of the reference grid                                         1
 PW_GRID| Grid distributed over                                    48 processors
 PW_GRID| Real space group dimensions                                    48    1
 PW_GRID| the grid is blocked:                                                NO
 PW_GRID| Cutoff [a.u.]                                                     27.8
 PW_GRID| spherical cutoff:                                                   NO
 PW_GRID|   Bounds   1            -67      67                Points:         135
 PW_GRID|   Bounds   2            -67      67                Points:         135
 PW_GRID|   Bounds   3            -67      67                Points:         135
 PW_GRID| Volume element (a.u.^3)  0.7406E-01     Volume (a.u.^3)    182205.0337
 PW_GRID| Grid span                                                    FULLSPACE
 PW_GRID|   Distribution                         Average         Max         Min
 PW_GRID|   G-Vectors                            51257.8       51570       51030
 PW_GRID|   G-Rays                                 379.7         382         378
 PW_GRID|   Real Space Points                    51257.8       54675       36450

 PW_GRID| Information for grid number                                          4
 PW_GRID| Number of the reference grid                                         1
 PW_GRID| Grid distributed over                                    48 processors
 PW_GRID| Real space group dimensions                                    48    1
 PW_GRID| the grid is blocked:                                                NO
 PW_GRID| Cutoff [a.u.]                                                      9.3
 PW_GRID| spherical cutoff:                                                   NO
 PW_GRID|   Bounds   1            -40      39                Points:          80
 PW_GRID|   Bounds   2            -40      39                Points:          80
 PW_GRID|   Bounds   3            -40      39                Points:          80
 PW_GRID| Volume element (a.u.^3)  0.3559         Volume (a.u.^3)    182205.0337
 PW_GRID| Grid span                                                    FULLSPACE
 PW_GRID|   Distribution                         Average         Max         Min
 PW_GRID|   G-Vectors                            10666.7       10800       10560
 PW_GRID|   G-Rays                                 133.3         135         132
 PW_GRID|   Real Space Points                    10666.7       12800        6400

 POISSON| Solver                                                         WAVELET
 POISSON| Wavelet| Scaling function                                           40
 POISSON| Periodicity                                                       NONE

 RS_GRID| Information for grid number                                          1
 RS_GRID|   Bounds   1           -202     202                Points:         405
 RS_GRID|   Bounds   2           -202     202                Points:         405
 RS_GRID|   Bounds   3           -202     202                Points:         405
 RS_GRID| Real space distribution over                                  3 groups
 RS_GRID| Real space distribution along direction                              1
 RS_GRID| Border size                                                         31
 RS_GRID| Real space distribution over                                  4 groups
 RS_GRID| Real space distribution along direction                              2
 RS_GRID| Border size                                                         31
 RS_GRID| Real space distribution over                                  4 groups
 RS_GRID| Real space distribution along direction                              3
 RS_GRID| Border size                                                         31
 RS_GRID|   Distribution                         Average         Max         Min
 RS_GRID|   Planes                                 197.0         197         197
 RS_GRID|   Distribution                         Average         Max         Min
 RS_GRID|   Planes                                 163.2         164         163
 RS_GRID|   Distribution                         Average         Max         Min
 RS_GRID|   Planes                                 163.2         164         163

 RS_GRID| Information for grid number                                          2
 RS_GRID|   Bounds   1           -120     119                Points:         240
 RS_GRID|   Bounds   2           -120     119                Points:         240
 RS_GRID|   Bounds   3           -120     119                Points:         240
 RS_GRID| Real space distribution over                                  3 groups
 RS_GRID| Real space distribution along direction                              1
 RS_GRID| Border size                                                         33
 RS_GRID| Real space distribution over                                  4 groups
 RS_GRID| Real space distribution along direction                              2
 RS_GRID| Border size                                                         33
 RS_GRID| Real space distribution over                                  4 groups
 RS_GRID| Real space distribution along direction                              3
 RS_GRID| Border size                                                         33
 RS_GRID|   Distribution                         Average         Max         Min
 RS_GRID|   Planes                                 146.0         146         146
 RS_GRID|   Distribution                         Average         Max         Min
 RS_GRID|   Planes                                 126.0         126         126
 RS_GRID|   Distribution                         Average         Max         Min
 RS_GRID|   Planes                                 126.0         126         126

 RS_GRID| Information for grid number                                          3
 RS_GRID|   Bounds   1            -67      67                Points:         135
 RS_GRID|   Bounds   2            -67      67                Points:         135
 RS_GRID|   Bounds   3            -67      67                Points:         135
 RS_GRID| Real space fully replicated
 RS_GRID| Group size                                                           1

 RS_GRID| Information for grid number                                          4
 RS_GRID|   Bounds   1            -40      39                Points:          80
 RS_GRID|   Bounds   2            -40      39                Points:          80
 RS_GRID|   Bounds   3            -40      39                Points:          80
 RS_GRID| Real space fully replicated
 RS_GRID| Group size                                                           1

  HFX_INFO| Replica ID:                                                        1
  HFX_INFO| FRACTION:                                               0.2500000000
  HFX_INFO| Interaction Potential:                                       COULOMB
  HFX_INFO| EPS_SCHWARZ:                                                 1.0E-10
  HFX_INFO| EPS_SCHWARZ_FORCES                                           1.0E-08
  HFX_INFO| EPS_STORAGE_SCALING:                                         1.0E+00
  HFX_INFO| NBINS:                                                            64
  HFX_INFO| BLOCK_SIZE:                                                        1
  HFX_INFO| Number of periodic shells considered:                           NONE
  HFX_INFO| Number of periodic cells considered:                            NONE

 
 RI-RPA| using GPW style
 

 OVERLAP MATRIX CONDITION NUMBER
 1-Norm Condition Number (Estimate)
   CN : |A|*|A^-1|:  6.511E+000 *  5.092E+002   = 3.315E+003  Log(1-CN):  3.5205
 1-Norm and 2-Norm Condition Numbers using Diagonalization
   CN : |A|*|A^-1|:  6.511E+000 *  5.092E+002   = 3.315E+003  Log(1-CN):  3.5205
   CN : max/min ev:  4.709E+000 /  2.997E-003   = 1.572E+003  Log(2-CN):  3.1963

 Number of electrons:                                                          8
 Number of occupied orbitals:                                                  4
 Number of molecular orbitals:                                                32

 Number of orbital functions:                                                 32
 Number of independent orbital functions:                                     32

 Extrapolation method: initial_guess

 Atomic guess: The first density matrix is obtained in terms of atomic orbitals
               and electronic configurations assigned to each atomic kind

 Guess for atomic kind: N

 Electronic structure
    Total number of core electrons                                          0.00
    Total number of valence electrons                                       7.00
    Total number of electrons                                               7.00
    Multiplicity                                                   not specified
    S      2.00  2.00
    P      3.00


 *******************************************************************************
                  Iteration          Convergence                     Energy [au]
 *******************************************************************************
                          1        0.324015                     -53.962160635180
                          2        0.303793                     -53.968191480532
                          3        0.419977E-02                 -54.007027300491
                          4        0.499184E-03                 -54.007041130238
                          5        0.777606E-05                 -54.007041218366
                          6        0.741085E-07                 -54.007041218391

 Energy components [Hartree]           Total Energy ::          -54.007041218391
                                        Band Energy ::          -30.179796805617
                                     Kinetic Energy ::           54.022800604949
                                   Potential Energy ::         -108.029841823340
                                      Virial (-V/T) ::            1.999708282681
                                        Core Energy ::          -73.637352250568
                                          XC Energy ::           -6.149267785012
                                     Coulomb Energy ::           25.779578817189

 Orbital energies  State     L     Occupation   Energy[a.u.]          Energy[eV]

                       1     0          2.000     -14.015075         -381.369581
                       2     0          2.000      -0.677390          -18.432723

                       1     1          3.000      -0.264956           -7.209809


 Total Electron Density at R=0:                                       197.076012

 Guess for atomic kind: H

 Electronic structure
    Total number of core electrons                                          0.00
    Total number of valence electrons                                       1.00
    Total number of electrons                                               1.00
    Multiplicity                                                   not specified
    S      1.00


 *******************************************************************************
                  Iteration          Convergence                     Energy [au]
 *******************************************************************************
                          1        0.880988E-02                  -0.444778274653
                          2        0.791349E-03                  -0.444877834394
                          3        0.111042E-03                  -0.444880192149
                          4        0.306660E-07                  -0.444880212296

 Energy components [Hartree]           Total Energy ::           -0.444880212296
                                        Band Energy ::           -0.232361879729
                                     Kinetic Energy ::            0.420568354334
                                   Potential Energy ::           -0.865448566630
                                      Virial (-V/T) ::            2.057807150044
                                        Core Energy ::           -0.495477856147
                                          XC Energy ::           -0.232385335983
                                     Coulomb Energy ::            0.282982979834

 Orbital energies  State     L     Occupation   Energy[a.u.]          Energy[eV]

                       1     0          1.000      -0.232362           -6.322888


 Total Electron Density at R=0:                                         0.221399
 Re-scaling the density matrix to get the right number of electrons
                  # Electrons              Trace(P)               Scaling factor
                            8                 8.000                        1.000


 SCF WAVEFUNCTION OPTIMIZATION

  Step     Update method      Time    Convergence         Total energy    Change
  ------------------------------------------------------------------------------

  HFX_MEM_INFO| Est. max. program size before HFX [MiB]:                    1273
  HFX_MEM_INFO| Number of cart. primitive ERI's calculated:              2808441
  HFX_MEM_INFO| Number of sph. ERI's calculated:                          498370
  HFX_MEM_INFO| Number of sph. ERI's stored in-core:                      498370
  HFX_MEM_INFO| Number of sph. ERI's stored on disk:                           0
  HFX_MEM_INFO| Number of sph. ERI's calculated on the fly:                    0
  HFX_MEM_INFO| Total memory consumption ERI's RAM [MiB]:                      3
  HFX_MEM_INFO| Whereof max-vals [MiB]:                                        2
  HFX_MEM_INFO| Total compression factor ERI's RAM:                         1.30
  HFX_MEM_INFO| Total memory consumption ERI's disk [MiB]:                     0
  HFX_MEM_INFO| Total compression factor ERI's disk:                        0.00
  HFX_MEM_INFO| Size of density/Fock matrix [MiB]:                             0
  HFX_MEM_INFO| Size of buffers [MiB]:                                         0
  HFX_MEM_INFO| Est. max. program size after HFX  [MiB]:                    1777

     1 NoMix/Diag. 0.10E+00    4.3     1.10069567       -55.0066983455 -5.50E+01
     2 Broy./Diag. 0.10E+00    2.6     0.09538380       -54.6294161073  3.77E-01
     3 Broy./Diag. 0.10E+00    2.6     0.04269357       -54.5479935298  8.14E-02
     4 Broy./Diag. 0.10E+00    2.6     0.14692477       -54.8616768760 -3.14E-01
     5 Broy./Diag. 0.10E+00    2.6     0.02771483       -55.1709834616 -3.09E-01
     6 Broy./Diag. 0.10E+00    2.7     0.04374285       -55.1175236736  5.35E-02
     7 Broy./Diag. 0.10E+00    2.7     0.02715552       -55.0060778655  1.11E-01
     8 Broy./Diag. 0.10E+00    2.8     0.00100014       -54.9570247551  4.91E-02
     9 Broy./Diag. 0.10E+00    2.8     0.04432436       -55.0340730918 -7.70E-02
    10 Broy./Diag. 0.10E+00    2.9     0.00621719       -55.1272863433 -9.32E-02
    11 Broy./Diag. 0.10E+00    2.9     0.01017798       -55.1177812563  9.51E-03
    12 Broy./Diag. 0.10E+00    2.8     0.01214933       -55.0744680758  4.33E-02
    13 Broy./Diag. 0.10E+00    2.8     0.00151444       -55.0505398870  2.39E-02
    14 Broy./Diag. 0.10E+00    2.8     0.01308547       -55.0724598384 -2.19E-02
    15 Broy./Diag. 0.10E+00    2.8     0.00224107       -55.0975303891 -2.51E-02
    16 Broy./Diag. 0.10E+00    2.8     0.00202662       -55.0941158991  3.41E-03
    17 Broy./Diag. 0.10E+00    2.8     0.00395274       -55.0839895158  1.01E-02
    18 Broy./Diag. 0.10E+00    2.8     0.00142006       -55.0761974227  7.79E-03
    19 Broy./Diag. 0.10E+00    2.8     0.00069332       -55.0756635557  5.34E-04
    20 Broy./Diag. 0.10E+00    2.8     0.00144035       -55.0801505752 -4.49E-03
    21 Broy./Diag. 0.10E+00    2.8     0.00146102       -55.0828899047 -2.74E-03
    22 Broy./Diag. 0.10E+00    2.8     0.00074618       -55.0825879234  3.02E-04
    23 Broy./Diag. 0.10E+00    2.8     0.00040189       -55.0810258924  1.56E-03
    24 Broy./Diag. 0.10E+00    2.8     0.00034091       -55.0800725247  9.53E-04
    25 Broy./Diag. 0.10E+00    2.8     0.00012952       -55.0798500498  2.22E-04
    26 Broy./Diag. 0.10E+00    2.9     0.00020111       -55.0795546295  2.95E-04
    27 Broy./Diag. 0.10E+00    2.8     0.00019475       -55.0791873326  3.67E-04
    28 Broy./Diag. 0.10E+00    2.8     0.00043436       -55.0792136895 -2.64E-05
    29 Broy./Diag. 0.10E+00    2.8     0.00017585       -55.0793365993 -1.23E-04
    30 Broy./Diag. 0.10E+00    2.9     0.00005522       -55.0792755631  6.10E-05
    31 Broy./Diag. 0.10E+00    2.8     0.00013293       -55.0791660856  1.09E-04
    32 Broy./Diag. 0.10E+00    2.9     0.00064012       -55.0790953534  7.07E-05
    33 Broy./Diag. 0.10E+00    2.8     0.00013647       -55.0791291363 -3.38E-05
    34 Broy./Diag. 0.10E+00    2.8     0.00012264       -55.0790087454  1.20E-04
    35 Broy./Diag. 0.10E+00    2.8     0.00008920       -55.0789841079  2.46E-05
    36 Broy./Diag. 0.10E+00    2.8     0.00004120       -55.0790765315 -9.24E-05
    37 Broy./Diag. 0.10E+00    2.8     0.00002385       -55.0790658559  1.07E-05
    38 Broy./Diag. 0.10E+00    2.8     0.00007285       -55.0790423097  2.35E-05
    39 Broy./Diag. 0.10E+00    2.8     0.00026726       -55.0790237956  1.85E-05
    40 Broy./Diag. 0.10E+00    2.9     0.00003656       -55.0790173012  6.49E-06
    41 Broy./Diag. 0.10E+00    2.8     0.00001437       -55.0790523567 -3.51E-05
    42 Broy./Diag. 0.10E+00    2.8     0.00002200       -55.0790546019 -2.25E-06
    43 Broy./Diag. 0.10E+00    2.8     0.00003069       -55.0790322139  2.24E-05
    44 Broy./Diag. 0.10E+00    2.8     0.00006036       -55.0790370561 -4.84E-06
    45 Broy./Diag. 0.10E+00    3.0     0.00007175       -55.0790542220 -1.72E-05
    46 Broy./Diag. 0.10E+00    2.8     0.00011646       -55.0790460578  8.16E-06
    47 Broy./Diag. 0.10E+00    2.8     0.00018241       -55.0790527979 -6.74E-06
    48 Broy./Diag. 0.10E+00    2.8     0.00032062       -55.0790598732 -7.08E-06
    49 Broy./Diag. 0.10E+00    2.8     0.00054219       -55.0790566822  3.19E-06
    50 Broy./Diag. 0.10E+00    2.9     0.00091514       -55.0790566006  8.16E-08
    51 Broy./Diag. 0.10E+00    2.8     0.00154458       -55.0790784860 -2.19E-05
    52 Broy./Diag. 0.10E+00    2.9     0.00261154       -55.0791134934 -3.50E-05
    53 Broy./Diag. 0.10E+00    2.8     0.00440341       -55.0791434134 -2.99E-05
    54 Broy./Diag. 0.10E+00    2.8     0.00743059       -55.0791767370 -3.33E-05
    55 Broy./Diag. 0.10E+00    2.8     0.01244402       -55.0791328671  4.39E-05
    56 Broy./Diag. 0.10E+00    2.9     0.02083969       -55.0790266826  1.06E-04
    57 Broy./Diag. 0.10E+00    2.8     0.03503906       -55.0788570899  1.70E-04
    58 Broy./Diag. 0.10E+00    2.8     0.05848464       -55.0785812527  2.76E-04
    59 Broy./Diag. 0.10E+00    2.8     0.09565817       -55.0780969088  4.84E-04
    60 Broy./Diag. 0.10E+00    2.8     0.14831254       -55.0771039894  9.93E-04
    61 Broy./Diag. 0.10E+00    2.9     0.20107981       -55.0743279485  2.78E-03
    62 Broy./Diag. 0.10E+00    2.9     0.26451193       -55.0670649847  7.26E-03
    63 Broy./Diag. 0.10E+00    2.9     0.36595765       -55.0516859458  1.54E-02
    64 Broy./Diag. 0.10E+00    2.9     0.35995237       -55.0272652615  2.44E-02
    65 Broy./Diag. 0.10E+00    2.8     0.27146952       -54.9998503567  2.74E-02
    66 Broy./Diag. 0.10E+00    2.8     0.17226581       -54.9767731167  2.31E-02
    67 Broy./Diag. 0.10E+00    2.8     0.14151909       -54.9609761579  1.58E-02
    68 Broy./Diag. 0.10E+00    2.8     0.11345535       -54.9513905758  9.59E-03
    69 Broy./Diag. 0.10E+00    3.0     0.08593322       -54.9461715403  5.22E-03
    70 Broy./Diag. 0.10E+00    2.8     0.06321536       -54.9439756203  2.20E-03
    71 Broy./Diag. 0.10E+00    2.8     0.04553868       -54.9455312237 -1.56E-03
    72 Broy./Diag. 0.10E+00    2.8     0.02984304       -54.9672076623 -2.17E-02
    73 Broy./Diag. 0.10E+00    2.9     0.02230042       -54.9751541168 -7.95E-03
    74 Broy./Diag. 0.10E+00    2.8     0.02624866       -54.9972281490 -2.21E-02
    75 Broy./Diag. 0.10E+00    2.8     0.04029503       -55.0585329525 -6.13E-02

 *** WARNING in pw/ps_wavelet_methods.F:238 :: Density non-zero on the ***
 *** edges of the unit cell: wrong results in WAVELET solver           ***

    76 Broy./Diag. 0.10E+00    2.8     0.10440001       -55.1545981951 -9.61E-02

 *** WARNING in pw/ps_wavelet_methods.F:238 :: Density non-zero on the ***
 *** edges of the unit cell: wrong results in WAVELET solver           ***

    77 Broy./Diag. 0.10E+00    2.9     0.19199882       -55.2857438148 -1.31E-01

 *** WARNING in pw/ps_wavelet_methods.F:238 :: Density non-zero on the ***
 *** edges of the unit cell: wrong results in WAVELET solver           ***

    78 Broy./Diag. 0.10E+00    2.8     0.20517967       -55.3537928023 -6.80E-02

 *** WARNING in pw/ps_wavelet_methods.F:238 :: Density non-zero on the ***
 *** edges of the unit cell: wrong results in WAVELET solver           ***

    79 Broy./Diag. 0.10E+00    2.8     0.12365573       -55.2012025759  1.53E-01
    80 Broy./Diag. 0.10E+00    2.8     0.11935967       -54.8794039409  3.22E-01
    81 Broy./Diag. 0.10E+00    2.9     0.12466520       -54.7802436603  9.92E-02
    82 Broy./Diag. 0.10E+00    2.9     0.21503632       -55.1993093974 -4.19E-01
    83 Broy./Diag. 0.10E+00    2.9     0.08926682       -55.4965213008 -2.97E-01
    84 Broy./Diag. 0.10E+00    2.9     0.22860831       -55.3328511809  1.64E-01
    85 Broy./Diag. 0.10E+00    2.8     0.31179987       -55.2727865976  6.01E-02
    86 Broy./Diag. 0.10E+00    2.8     0.22579056       -55.3214288811 -4.86E-02

 *** WARNING in pw/ps_wavelet_methods.F:238 :: Density non-zero on the ***
 *** edges of the unit cell: wrong results in WAVELET solver           ***

    87 Broy./Diag. 0.10E+00    2.8     0.20846910       -55.2142423019  1.07E-01

 *** WARNING in pw/ps_wavelet_methods.F:238 :: Density non-zero on the ***
 *** edges of the unit cell: wrong results in WAVELET solver           ***

    88 Broy./Diag. 0.10E+00    2.8     0.10973462       -55.1625888164  5.17E-02
    89 Broy./Diag. 0.10E+00    2.9     0.13105775       -55.1228875496  3.97E-02

 *** WARNING in pw/ps_wavelet_methods.F:238 :: Density non-zero on the ***
 *** edges of the unit cell: wrong results in WAVELET solver           ***

    90 Broy./Diag. 0.10E+00    2.8     0.28462545       -55.1593163845 -3.64E-02
    91 Broy./Diag. 0.10E+00    2.9     0.33654495       -55.1601699995 -8.54E-04

 *** WARNING in pw/ps_wavelet_methods.F:238 :: Density non-zero on the ***
 *** edges of the unit cell: wrong results in WAVELET solver           ***

    92 Broy./Diag. 0.10E+00    2.9     0.34537638       -55.1472519127  1.29E-02

 *** WARNING in pw/ps_wavelet_methods.F:238 :: Density non-zero on the ***
 *** edges of the unit cell: wrong results in WAVELET solver           ***

    93 Broy./Diag. 0.10E+00    2.8     0.25753556       -55.2072872204 -6.00E-02
    94 Broy./Diag. 0.10E+00    2.9     0.19121232       -55.1726118112  3.47E-02
    95 Broy./Diag. 0.10E+00    2.8     0.15023818       -55.1729558804 -3.44E-04
    96 Broy./Diag. 0.10E+00    2.9     0.08504892       -55.1721381489  8.18E-04
    97 Broy./Diag. 0.10E+00    2.8     0.08720657       -55.1754657730 -3.33E-03
    98 Broy./Diag. 0.10E+00    2.8     0.08045770       -55.1729042859  2.56E-03
    99 Broy./Diag. 0.10E+00    2.8     0.11284203       -55.1954646349 -2.26E-02
   100 Broy./Diag. 0.10E+00    2.8     0.09470861       -55.2214068505 -2.59E-02
   101 Broy./Diag. 0.10E+00    2.8     0.02145817       -55.2415310406 -2.01E-02
   102 Broy./Diag. 0.10E+00    2.8     0.03251620       -55.2606616547 -1.91E-02
   103 Broy./Diag. 0.10E+00    2.9     0.02760316       -55.2813043057 -2.06E-02
   104 Broy./Diag. 0.10E+00    2.9     0.01826822       -55.2718316808  9.47E-03
   105 Broy./Diag. 0.10E+00    2.8     0.07747314       -55.2617840514  1.00E-02
   106 Broy./Diag. 0.10E+00    2.8     0.10903256       -55.2166544309  4.51E-02
   107 Broy./Diag. 0.10E+00    2.8     0.00970539       -55.1454751780  7.12E-02
   108 Broy./Diag. 0.10E+00    2.8     0.02803137       -55.1231884380  2.23E-02
   109 Broy./Diag. 0.10E+00    2.8     0.03771242       -55.1071362143  1.61E-02
   110 Broy./Diag. 0.10E+00    2.8     0.03233920       -55.0980617138  9.07E-03
   111 Broy./Diag. 0.10E+00    2.8     0.07436993       -55.0958623343  2.20E-03
   112 Broy./Diag. 0.10E+00    2.9     0.11999202       -55.0912354845  4.63E-03
   113 Broy./Diag. 0.10E+00    2.9     0.16917972       -55.0978906907 -6.66E-03
   114 Broy./Diag. 0.10E+00    2.8     0.20540219       -55.0916024854  6.29E-03
   115 Broy./Diag. 0.10E+00    2.9     0.23188554       -55.0862593393  5.34E-03
   116 Broy./Diag. 0.10E+00    2.9     0.26888224       -55.0784213215  7.84E-03
   117 Broy./Diag. 0.10E+00    2.8     0.31585055       -55.0562451663  2.22E-02
   118 Broy./Diag. 0.10E+00    2.8     0.28912041       -55.0344946276  2.18E-02
   119 Broy./Diag. 0.10E+00    2.8     0.23135500       -55.0249031620  9.59E-03
   120 Broy./Diag. 0.10E+00    2.8     0.16054088       -55.0158962216  9.01E-03
   121 Broy./Diag. 0.10E+00    2.8     0.10697737       -55.0000541864  1.58E-02
   122 Broy./Diag. 0.10E+00    2.8     0.08307337       -54.9842904817  1.58E-02
   123 Broy./Diag. 0.10E+00    2.8     0.08088173       -54.9851224144 -8.32E-04
   124 Broy./Diag. 0.10E+00    2.9     0.10961399       -55.0086143495 -2.35E-02
   125 Broy./Diag. 0.10E+00    2.8     0.13604247       -55.0489995168 -4.04E-02
   126 Broy./Diag. 0.10E+00    2.8     0.18520230       -55.0993802915 -5.04E-02
   127 Broy./Diag. 0.10E+00    2.9     0.22232989       -55.1237576361 -2.44E-02
   128 Broy./Diag. 0.10E+00    2.9     0.18450222       -55.1005480819  2.32E-02
   129 Broy./Diag. 0.10E+00    2.8     0.13508423       -55.0894183010  1.11E-02
   130 Broy./Diag. 0.10E+00    2.9     0.11862143       -55.0992741065 -9.86E-03
   131 Broy./Diag. 0.10E+00    2.8     0.01323144       -55.1060041077 -6.73E-03
   132 Broy./Diag. 0.10E+00    2.8     0.12500547       -55.1354856744 -2.95E-02
   133 Broy./Diag. 0.10E+00    2.9     0.15138492       -55.1444863891 -9.00E-03
   134 Broy./Diag. 0.10E+00    2.9     0.07168816       -55.1128113929  3.17E-02
   135 Broy./Diag. 0.10E+00    2.8     0.12320809       -55.1469974922 -3.42E-02
   136 Broy./Diag. 0.10E+00    2.8     0.15351060       -55.1514905560 -4.49E-03
   137 Broy./Diag. 0.10E+00    2.8     0.27070693       -55.1480248990  3.47E-03
   138 Broy./Diag. 0.10E+00    2.8     0.37119851       -55.1389787582  9.05E-03
   139 Broy./Diag. 0.10E+00    2.8     0.34926849       -55.1208181380  1.82E-02
   140 Broy./Diag. 0.10E+00    2.8     0.24444926       -55.0881746026  3.26E-02
   141 Broy./Diag. 0.10E+00    2.8     0.15395182       -55.0562654436  3.19E-02
   142 Broy./Diag. 0.10E+00    2.8     0.15543071       -55.0338153038  2.25E-02
   143 Broy./Diag. 0.10E+00    2.8     0.12278291       -55.0309854648  2.83E-03
   144 Broy./Diag. 0.10E+00    2.9     0.10535273       -55.0257391394  5.25E-03
   145 Broy./Diag. 0.10E+00    2.8     0.16394430       -55.0266510699 -9.12E-04
   146 Broy./Diag. 0.10E+00    2.8     0.21702298       -55.0372658202 -1.06E-02
   147 Broy./Diag. 0.10E+00    2.9     0.22095390       -55.0286744186  8.59E-03
   148 Broy./Diag. 0.10E+00    2.8     0.17301520       -55.0255428253  3.13E-03
   149 Broy./Diag. 0.10E+00    2.8     0.17623669       -55.0272408293 -1.70E-03
   150 Broy./Diag. 0.10E+00    2.8     0.23704465       -55.0126743284  1.46E-02
   151 Broy./Diag. 0.10E+00    2.8     0.16115956       -55.0395830952 -2.69E-02
   152 Broy./Diag. 0.10E+00    2.8     0.06365326       -55.1283679796 -8.88E-02
   153 Broy./Diag. 0.10E+00    2.8     0.04723846       -55.2273329406 -9.90E-02
   154 Broy./Diag. 0.10E+00    2.9     0.02730676       -55.2653035827 -3.80E-02
   155 Broy./Diag. 0.10E+00    2.9     0.12572260       -55.2694906079 -4.19E-03
   156 Broy./Diag. 0.10E+00    2.9     0.22310255       -55.2835632856 -1.41E-02
   157 Broy./Diag. 0.10E+00    2.9     0.25878759       -55.2864827029 -2.92E-03
   158 Broy./Diag. 0.10E+00    2.8     0.22831046       -55.2637302759  2.28E-02
   159 Broy./Diag. 0.10E+00    3.0     0.04403167       -55.2113820972  5.23E-02
   160 Broy./Diag. 0.10E+00    2.8     0.02990690       -55.2023813952  9.00E-03
   161 Broy./Diag. 0.10E+00    2.8     0.05140360       -55.2063861419 -4.00E-03
   162 Broy./Diag. 0.10E+00    2.8     0.11696752       -55.2028647375  3.52E-03
   163 Broy./Diag. 0.10E+00    2.8     0.18106746       -55.1952947114  7.57E-03
   164 Broy./Diag. 0.10E+00    2.8     0.20568922       -55.1977008812 -2.41E-03
   165 Broy./Diag. 0.10E+00    2.8     0.25264049       -55.2057203066 -8.02E-03
   166 Broy./Diag. 0.10E+00    2.9     0.19406134       -55.2144528246 -8.73E-03
   167 Broy./Diag. 0.10E+00    2.8     0.01182636       -55.2271926196 -1.27E-02
   168 Broy./Diag. 0.10E+00    2.9     0.10431601       -55.2483215696 -2.11E-02
   169 Broy./Diag. 0.10E+00    2.8     0.13960615       -55.2689644098 -2.06E-02
   170 Broy./Diag. 0.10E+00    2.8     0.17843025       -55.2569541732  1.20E-02
   171 Broy./Diag. 0.10E+00    2.9     0.21792667       -55.2470658510  9.89E-03
   172 Broy./Diag. 0.10E+00    2.8     0.25544837       -55.2377749673  9.29E-03
   173 Broy./Diag. 0.10E+00    2.8     0.20998005       -55.2178322339  1.99E-02
   174 Broy./Diag. 0.10E+00    2.8     0.10314899       -55.1973281274  2.05E-02
   175 Broy./Diag. 0.10E+00    2.8     0.01392293       -55.1789169272  1.84E-02
   176 Broy./Diag. 0.10E+00    2.8     0.01110974       -55.1822169750 -3.30E-03
   177 Broy./Diag. 0.10E+00    2.9     0.01916264       -55.1886596330 -6.44E-03
   178 Broy./Diag. 0.10E+00    2.9     0.10004600       -55.1828030239  5.86E-03
   179 Broy./Diag. 0.10E+00    2.8     0.18151110       -55.1832232589 -4.20E-04
   180 Broy./Diag. 0.10E+00    2.8     0.25291176       -55.1830344787  1.89E-04
   181 Broy./Diag. 0.10E+00    2.8     0.25522729       -55.1922384465 -9.20E-03
   182 Broy./Diag. 0.10E+00    2.8     0.19161871       -55.2015773918 -9.34E-03
   183 Broy./Diag. 0.10E+00    2.8     0.07316105       -55.2013685545  2.09E-04
   184 Broy./Diag. 0.10E+00    2.8     0.06024211       -55.2069624493 -5.59E-03
   185 Broy./Diag. 0.10E+00    2.8     0.04067989       -55.2089344425 -1.97E-03
   186 Broy./Diag. 0.10E+00    2.8     0.05747495       -55.2048917634  4.04E-03
   187 Broy./Diag. 0.10E+00    2.8     0.08528702       -55.1849178473  2.00E-02
   188 Broy./Diag. 0.10E+00    2.8     0.03025074       -55.1420492856  4.29E-02
   189 Broy./Diag. 0.10E+00    2.9     0.01368798       -55.0963691126  4.57E-02
   190 Broy./Diag. 0.10E+00    2.8     0.05829174       -55.0805213294  1.58E-02
   191 Broy./Diag. 0.10E+00    2.8     0.08878898       -55.0877277770 -7.21E-03
   192 Broy./Diag. 0.10E+00    2.8     0.15432212       -55.0905343419 -2.81E-03
   193 Broy./Diag. 0.10E+00    2.9     0.22153689       -55.0872175120  3.32E-03
   194 Broy./Diag. 0.10E+00    2.9     0.24287168       -55.0809642074  6.25E-03
   195 Broy./Diag. 0.10E+00    2.8     0.26578336       -55.0781946113  2.77E-03
   196 Broy./Diag. 0.10E+00    2.8     0.27936773       -55.0783044887 -1.10E-04
   197 Broy./Diag. 0.10E+00    2.8     0.24026175       -55.0746004037  3.70E-03
   198 Broy./Diag. 0.10E+00    2.8     0.22254046       -55.0418202655  3.28E-02
   199 Broy./Diag. 0.10E+00    3.0     0.18358617       -54.9931411088  4.87E-02
   200 Broy./Diag. 0.10E+00    2.9     0.12162465       -54.9624595243  3.07E-02
   201 Broy./Diag. 0.10E+00    2.9     0.09091693       -54.9473942450  1.51E-02
   202 Broy./Diag. 0.10E+00    2.9     0.06108555       -54.9286514101  1.87E-02
   203 Broy./Diag. 0.10E+00    2.9     0.08430038       -54.9480544440 -1.94E-02
   204 Broy./Diag. 0.10E+00    2.8     0.25132666       -54.9885845818 -4.05E-02
   205 Broy./Diag. 0.10E+00    2.8     0.31115539       -55.0233326302 -3.47E-02
   206 Broy./Diag. 0.10E+00    2.8     0.26293747       -55.0762023213 -5.29E-02
   207 Broy./Diag. 0.10E+00    2.8     0.14463701       -55.1291181638 -5.29E-02
   208 Broy./Diag. 0.10E+00    2.9     0.07149846       -55.1589850105 -2.99E-02
   209 Broy./Diag. 0.10E+00    2.8     0.04977760       -55.1704846142 -1.15E-02
   210 Broy./Diag. 0.10E+00    2.8     0.02126442       -55.1717939546 -1.31E-03
   211 Broy./Diag. 0.10E+00    2.8     0.03562487       -55.1663109803  5.48E-03
   212 Broy./Diag. 0.10E+00    2.8     0.02318866       -55.1696181325 -3.31E-03
   213 Broy./Diag. 0.10E+00    2.8     0.08342899       -55.1521419756  1.75E-02
   214 Broy./Diag. 0.10E+00    2.9     0.05511264       -55.1196003053  3.25E-02
   215 Broy./Diag. 0.10E+00    2.9     0.02397381       -55.0973014734  2.23E-02
   216 Broy./Diag. 0.10E+00    2.8     0.02437355       -55.0928744388  4.43E-03
   217 Broy./Diag. 0.10E+00    2.9     0.15456713       -55.0815211184  1.14E-02
   218 Broy./Diag. 0.10E+00    2.8     0.05672067       -55.1038646584 -2.23E-02
   219 Broy./Diag. 0.10E+00    2.8     0.05388113       -55.1021474868  1.72E-03
[...]
 *    |             please set the keyword IGNORE_CONVERGENCE_FAILURE.         *
 *  O/|                                                                        *
 * /| |                                                                        *
 * / \                                                            qs_scf.F:611 *
 *******************************************************************************


 ===== Routine Calling Stack ===== 

            3 scf_env_do_scf
            2 qs_energies
            1 CP2K

 *******************************************************************************
 *   ___                                                                       *
 *  /   \                                                                      *
 * [ABORT]                                                                     *
 *  \___/     SCF run NOT converged. To continue the calculation regardless,   *
 *    |             please set the keyword IGNORE_CONVERGENCE_FAILURE.         *
 *  O/|                                                                        *
 * /| |                                                                        *
 * / \                                                            qs_scf.F:611 *
 *******************************************************************************


 ===== Routine Calling Stack ===== 

            3 scf_env_do_scf
            2 qs_energies
            1 CP2K

 *******************************************************************************
 *   ___                                                                       *
 *  /   \                                                                      *
 * [ABORT]                                                                     *
 *  \___/     SCF run NOT converged. To continue the calculation regardless,   *
 *    |             please set the keyword IGNORE_CONVERGENCE_FAILURE.         *
 *  O/|                                                                        *
 * /| |                                                                        *
 * / \                                                            qs_scf.F:611 *
 *******************************************************************************


 ===== Routine Calling Stack ===== 

            3 scf_env_do_scf
            2 qs_energies
            1 CP2K

 *******************************************************************************
 *   ___                                                                       *
 *  /   \                                                                      *
 * [ABORT]                                                                     *
 *  \___/     SCF run NOT converged. To continue the calculation regardless,   *
 *    |             please set the keyword IGNORE_CONVERGENCE_FAILURE.         *
 *  O/|                                                                        *
 * /| |                                                                        *
 * / \                                                            qs_scf.F:611 *
 *******************************************************************************


 ===== Routine Calling Stack ===== 

            3 scf_env_do_scf
            2 qs_energies
            1 CP2K

 *******************************************************************************
 *   ___                                                                       *
 *  /   \                                                                      *
 * [ABORT]                                                                     *
 *  \___/     SCF run NOT converged. To continue the calculation regardless,   *
 *    |             please set the keyword IGNORE_CONVERGENCE_FAILURE.         *
 *  O/|                                                                        *
 * /| |                                                                        *
 * / \                                                            qs_scf.F:611 *
 *******************************************************************************


 ===== Routine Calling Stack ===== 

            3 scf_env_do_scf
            2 qs_energies
            1 CP2K

 *******************************************************************************
 *   ___                                                                       *
 *  /   \                                                                      *
 * [ABORT]                                                                     *
 *  \___/     SCF run NOT converged. To continue the calculation regardless,   *
 *    |             please set the keyword IGNORE_CONVERGENCE_FAILURE.         *
 *  O/|                                                                        *
 * /| |                                                                        *
 * / \                                                            qs_scf.F:611 *
 *******************************************************************************


 ===== Routine Calling Stack ===== 

            3 scf_env_do_scf
            2 qs_energies
            1 CP2K

 *******************************************************************************
 *   ___                                                                       *
 *  /   \                                                                      *
 * [ABORT]                                                                     *
 *  \___/     SCF run NOT converged. To continue the calculation regardless,   *
 *    |             please set the keyword IGNORE_CONVERGENCE_FAILURE.         *
 *  O/|                                                                        *
 * /| |                                                                        *
 * / \                                                            qs_scf.F:611 *
 *******************************************************************************


 ===== Routine Calling Stack ===== 

            3 scf_env_do_scf
            2 qs_energies
            1 CP2K

 *******************************************************************************
 *   ___                                                                       *
 *  /   \                                                                      *
 * [ABORT]                                                                     *
 *  \___/     SCF run NOT converged. To continue the calculation regardless,   *
 *    |             please set the keyword IGNORE_CONVERGENCE_FAILURE.         *
 *  O/|                                                                        *
 * /| |                                                                        *
 * / \                                                            qs_scf.F:611 *
 *******************************************************************************


 ===== Routine Calling Stack ===== 

            3 scf_env_do_scf
            2 qs_energies
            1 CP2K

 *******************************************************************************
 *   ___                                                                       *
 *  /   \                                                                      *
 * [ABORT]                                                                     *
 *  \___/     SCF run NOT converged. To continue the calculation regardless,   *
 *    |             please set the keyword IGNORE_CONVERGENCE_FAILURE.         *
 *  O/|                                                                        *
 * /| |                                                                        *
 * / \                                                            qs_scf.F:611 *
 *******************************************************************************


 ===== Routine Calling Stack ===== 

            3 scf_env_do_scf
            2 qs_energies
            1 CP2K

 *******************************************************************************
 *   ___                                                                       *
 *  /   \                                                                      *
 * [ABORT]                                                                     *
 *  \___/     SCF run NOT converged. To continue the calculation regardless,   *
 *    |             please set the keyword IGNORE_CONVERGENCE_FAILURE.         *
 *  O/|                                                                        *
 * /| |                                                                        *
 * / \                                                            qs_scf.F:611 *
 *******************************************************************************


 ===== Routine Calling Stack ===== 

            3 scf_env_do_scf
            2 qs_energies
            1 CP2K

 *******************************************************************************
 *   ___                                                                       *
 *  /   \                                                                      *
 * [ABORT]                                                                     *
 *  \___/     SCF run NOT converged. To continue the calculation regardless,   *
 *    |             please set the keyword IGNORE_CONVERGENCE_FAILURE.         *
 *  O/|                                                                        *
 * /| |                                                                        *
 * / \                                                            qs_scf.F:611 *
 *******************************************************************************


 ===== Routine Calling Stack ===== 

            3 scf_env_do_scf
            2 qs_energies
            1 CP2K

 *******************************************************************************
 *   ___                                                                       *
 *  /   \                                                                      *
 * [ABORT]                                                                     *
 *  \___/     SCF run NOT converged. To continue the calculation regardless,   *
 *    |             please set the keyword IGNORE_CONVERGENCE_FAILURE.         *
 *  O/|                                                                        *
 * /| |                                                                        *
 * / \                                                            qs_scf.F:611 *
 *******************************************************************************


 ===== Routine Calling Stack ===== 

            3 scf_env_do_scf
            2 qs_energies
            1 CP2K

 *******************************************************************************
 *   ___                                                                       *
 *  /   \                                                                      *
 * [ABORT]                                                                     *
 *  \___/     SCF run NOT converged. To continue the calculation regardless,   *
 *    |             please set the keyword IGNORE_CONVERGENCE_FAILURE.         *
 *  O/|                                                                        *
 * /| |                                                                        *
 * / \                                                            qs_scf.F:611 *
 *******************************************************************************


 ===== Routine Calling Stack ===== 

            3 scf_env_do_scf
            2 qs_energies
            1 CP2K

 *******************************************************************************
 *   ___                                                                       *
 *  /   \                                                                      *
 * [ABORT]                                                                     *
 *  \___/     SCF run NOT converged. To continue the calculation regardless,   *
 *    |             please set the keyword IGNORE_CONVERGENCE_FAILURE.         *
 *  O/|                                                                        *
 * /| |                                                                        *
 * / \                                                            qs_scf.F:611 *
 *******************************************************************************


 ===== Routine Calling Stack ===== 

            3 scf_env_do_scf
            2 qs_energies
            1 CP2K

 *******************************************************************************
 *   ___                                                                       *
 *  /   \                                                                      *
 * [ABORT]                                                                     *
 *  \___/     SCF run NOT converged. To continue the calculation regardless,   *
 *    |             please set the keyword IGNORE_CONVERGENCE_FAILURE.         *
 *  O/|                                                                        *
 * /| |                                                                        *
 * / \                                                            qs_scf.F:611 *
 *******************************************************************************


 ===== Routine Calling Stack ===== 

            3 scf_env_do_scf
            2 qs_energies
            1 CP2K

 *******************************************************************************
 *   ___                                                                       *
 *  /   \                                                                      *
 * [ABORT]                                                                     *
 *  \___/     SCF run NOT converged. To continue the calculation regardless,   *
 *    |             please set the keyword IGNORE_CONVERGENCE_FAILURE.         *
 *  O/|                                                                        *
 * /| |                                                                        *
 * / \                                                            qs_scf.F:611 *
 *******************************************************************************


 ===== Routine Calling Stack ===== 

            3 scf_env_do_scf
            2 qs_energies
            1 CP2K

 *******************************************************************************
 *   ___                                                                       *
 *  /   \                                                                      *
 * [ABORT]                                                                     *
 *  \___/     SCF run NOT converged. To continue the calculation regardless,   *
 *    |             please set the keyword IGNORE_CONVERGENCE_FAILURE.         *
 *  O/|                                                                        *
 * /| |                                                                        *
 * / \                                                            qs_scf.F:611 *
 *******************************************************************************


 ===== Routine Calling Stack ===== 

            3 scf_env_do_scf
            2 qs_energies
            1 CP2K

 *******************************************************************************
 *   ___                                                                       *
 *  /   \                                                                      *
 * [ABORT]                                                                     *
 *  \___/     SCF run NOT converged. To continue the calculation regardless,   *
 *    |             please set the keyword IGNORE_CONVERGENCE_FAILURE.         *
 *  O/|                                                                        *
 * /| |                                                                        *
 * / \                                                            qs_scf.F:611 *
 *******************************************************************************


 ===== Routine Calling Stack ===== 

            3 scf_env_do_scf
            2 qs_energies
            1 CP2K

 *******************************************************************************
 *   ___                                                                       *
 *  /   \                                                                      *
 * [ABORT]                                                                     *
 *  \___/     SCF run NOT converged. To continue the calculation regardless,   *
 *    |             please set the keyword IGNORE_CONVERGENCE_FAILURE.         *
 *  O/|                                                                        *
 * /| |                                                                        *
 * / \                                                            qs_scf.F:611 *
 *******************************************************************************


 ===== Routine Calling Stack ===== 

            3 scf_env_do_scf
            2 qs_energies
            1 CP2K

 *******************************************************************************
 *   ___                                                                       *
 *  /   \                                                                      *
 * [ABORT]                                                                     *
 *  \___/     SCF run NOT converged. To continue the calculation regardless,   *
 *    |             please set the keyword IGNORE_CONVERGENCE_FAILURE.         *
 *  O/|                                                                        *
 * /| |                                                                        *
 * / \                                                            qs_scf.F:611 *
 *******************************************************************************


 ===== Routine Calling Stack ===== 

            3 scf_env_do_scf
            2 qs_energies
            1 CP2K

 *******************************************************************************
 *   ___                                                                       *
 *  /   \                                                                      *
 * [ABORT]                                                                     *
 *  \___/     SCF run NOT converged. To continue the calculation regardless,   *
 *    |             please set the keyword IGNORE_CONVERGENCE_FAILURE.         *
 *  O/|                                                                        *
 * /| |                                                                        *
 * / \                                                            qs_scf.F:611 *
 *******************************************************************************


 ===== Routine Calling Stack ===== 

            3 scf_env_do_scf
            2 qs_energies
            1 CP2K

 *******************************************************************************
 *   ___                                                                       *
 *  /   \                                                                      *
 * [ABORT]                                                                     *
 *  \___/     SCF run NOT converged. To continue the calculation regardless,   *
 *    |             please set the keyword IGNORE_CONVERGENCE_FAILURE.         *
 *  O/|                                                                        *
 * /| |                                                                        *
 * / \                                                            qs_scf.F:611 *
 *******************************************************************************


 ===== Routine Calling Stack ===== 

            3 scf_env_do_scf
            2 qs_energies
            1 CP2K
