 DBCSR| CPU Multiplication driver                                           BLAS (U)
 DBCSR| Multrec recursion limit                                              512 (U)
 DBCSR| Multiplication stack size                                           1000 (D)
 DBCSR| Maximum elements for images                                    UNLIMITED (U)
 DBCSR| Multiplicative factor virtual images                                   1 (U)
 DBCSR| Use multiplication densification                                       T (D)
 DBCSR| Multiplication size stacks                                             3 (U)
 DBCSR| Use memory pool for CPU allocation                                     F (U)
 DBCSR| Number of 3D layers                                               SINGLE (U)
 DBCSR| Use MPI memory allocation                                              F (U)
 DBCSR| Use RMA algorithm                                                      F (U)
 DBCSR| Use Communication thread                                               T (U)
 DBCSR| Communication thread load                                             75 (D)
 DBCSR| MPI: My process id                                                     0
 DBCSR| MPI: Number of processes                                              24
 DBCSR| OMP: Current number of threads                                         4
 DBCSR| OMP: Max number of threads                                             4
 DBCSR| Split modifier for TAS multiplication algorithm                  1.0E+00 (U)


  **** **** ******  **  PROGRAM STARTED AT               2025-03-13 07:17:49.372
 ***** ** ***  *** **   PROGRAM STARTED ON                          i04r11c06s05
 **    ****   ******    PROGRAM STARTED BY                               di38fab
 ***** **    ** ** **   PROGRAM PROCESS ID                               1393137
  **** **  *******  **  PROGRAM STARTED IN /hppfs/scratch/04/di38fab/05_MOL/W4-1
                                           1+ALK/c2/SZVSR/GW+BSE/1e-3

 CP2K| version string:                 CP2K version 2025.1 (Development Version)
 CP2K| source code revision number:                                  git:d2e611a
 CP2K| cp2kflags: omp libint fftw3 libxc parallel scalapack max_contr=4         
 CP2K| is freely available from                            https://www.cp2k.org/
 CP2K| Program compiled at                       Thu 06 Mar 2025 05:09:20 PM CET
 CP2K| Program compiled on                                               login02
 CP2K| Program compiled for                                        Supermuc-foss
 CP2K| Data directory path                  /hppfs/work/pn36zo/di38fab/cp2k/data
 CP2K| Input file name                                                    GW.inp

 GLOBAL| Force Environment number                                              1
 GLOBAL| Basis set file name            /hppfs/scratch/04/di38fab/04_TMD/BASIS_A
 GLOBAL| Potential file name            /hppfs/work/pn36zo/di38fab/cp2k/data/ALL
 GLOBAL| MM Potential file name                                     MM_POTENTIAL
 GLOBAL| Coordinate file name                                      __STD_INPUT__
 GLOBAL| Method name                                                        CP2K
 GLOBAL| Project name                                                       MoS2
 GLOBAL| Run type                                                         ENERGY
 GLOBAL| FFT library                                                       FFTW3
 GLOBAL| Diagonalization library                                       ScaLAPACK
 GLOBAL| DGEMM library                                                      BLAS
 GLOBAL| Orthonormality check for eigenvectors                          DISABLED
 GLOBAL| Matrix multiplication library                                 ScaLAPACK
 GLOBAL| All-to-all communication in single precision                          F
 GLOBAL| FFTs using library dependent lengths                                  F
 GLOBAL| Grid backend                                                       AUTO
 GLOBAL| Global print level                                               MEDIUM
 GLOBAL| MPI I/O enabled                                                       T
 GLOBAL| Total number of message passing processes                            24
 GLOBAL| Number of threads for this process                                    4
 GLOBAL| This output is from process                                           0
 GLOBAL| OpenMP stack size per thread (OMP_STACKSIZE)                    default
 GLOBAL| CPU model name             Intel(R) Xeon(R) Platinum 8174 CPU @ 3.10GHz

 MEMORY| system memory details [Kb]
 MEMORY|                        rank 0           min           max       average
 MEMORY| MemTotal             98436660      98436660      98436664      98436662
 MEMORY| MemFree              83902376      83820512      83902376      83861444
 MEMORY| Buffers                     0             0             0             0
 MEMORY| Cached                2416284       2402240       2416284       2409262
 MEMORY| Slab                  1242768       1242768       1246432       1244600
 MEMORY| SReclaimable           272848        270580        272848        271714
 MEMORY| MemLikelyFree        86591508      86493332      86591508      86542420


 *** Fundamental physical constants (SI units) ***

 *** Literature: B. J. Mohr and B. N. Taylor,
 ***             CODATA recommended values of the fundamental physical
 ***             constants: 2006, Web Version 5.1
 ***             http://physics.nist.gov/constants

 Speed of light in vacuum [m/s]                             2.99792458000000E+08
 Magnetic constant or permeability of vacuum [N/A**2]       1.25663706143592E-06
 Electric constant or permittivity of vacuum [F/m]          8.85418781762039E-12
 Planck constant (h) [J*s]                                  6.62606896000000E-34
 Planck constant (h-bar) [J*s]                              1.05457162825177E-34
 Elementary charge [C]                                      1.60217648700000E-19
 Electron mass [kg]                                         9.10938215000000E-31
 Electron g factor [ ]                                     -2.00231930436220E+00
 Proton mass [kg]                                           1.67262163700000E-27
 Fine-structure constant                                    7.29735253760000E-03
 Rydberg constant [1/m]                                     1.09737315685270E+07
 Avogadro constant [1/mol]                                  6.02214179000000E+23
 Boltzmann constant [J/K]                                   1.38065040000000E-23
 Atomic mass unit [kg]                                      1.66053878200000E-27
 Bohr radius [m]                                            5.29177208590000E-11

 *** Conversion factors ***

 [u] -> [a.u.]                                              1.82288848426455E+03
 [Angstrom] -> [Bohr] = [a.u.]                              1.88972613288564E+00
 [a.u.] = [Bohr] -> [Angstrom]                              5.29177208590000E-01
 [a.u.] -> [s]                                              2.41888432650478E-17
 [a.u.] -> [fs]                                             2.41888432650478E-02
 [a.u.] -> [J]                                              4.35974393937059E-18
 [a.u.] -> [N]                                              8.23872205491840E-08
 [a.u.] -> [K]                                              3.15774647902944E+05
 [a.u.] -> [kJ/mol]                                         2.62549961709828E+03
 [a.u.] -> [kcal/mol]                                       6.27509468713739E+02
 [a.u.] -> [Pa]                                             2.94210107994716E+13
 [a.u.] -> [bar]                                            2.94210107994716E+08
 [a.u.] -> [atm]                                            2.90362800883016E+08
 [a.u.] -> [eV]                                             2.72113838565563E+01
 [a.u.] -> [Hz]                                             6.57968392072181E+15
 [a.u.] -> [1/cm] (wave numbers)                            2.19474631370540E+05
 [a.u./Bohr**2] -> [1/cm]                                   5.14048714338585E+03
 

 CELL_TOP| Volume [angstrom^3]:                                     27000.000000
 CELL_TOP| Vector a [angstrom    30.000     0.000     0.000   |a| =    30.000000
 CELL_TOP| Vector b [angstrom     0.000    30.000     0.000   |b| =    30.000000
 CELL_TOP| Vector c [angstrom     0.000     0.000    30.000   |c| =    30.000000
 CELL_TOP| Angle (b,c), alpha [degree]:                                90.000000
 CELL_TOP| Angle (a,c), beta  [degree]:                                90.000000
 CELL_TOP| Angle (a,b), gamma [degree]:                                90.000000
 CELL_TOP| Numerically orthorhombic:                                         YES
 CELL_TOP| Periodicity                                                      NONE

 GENERATE|  Preliminary Number of Bonds generated:                             0
 GENERATE|  Achieved consistency in connectivity generation.

 CELL| Volume [angstrom^3]:                                         27000.000000
 CELL| Vector a [angstrom]:      30.000     0.000     0.000   |a| =    30.000000
 CELL| Vector b [angstrom]:       0.000    30.000     0.000   |b| =    30.000000
 CELL| Vector c [angstrom]:       0.000     0.000    30.000   |c| =    30.000000
 CELL| Angle (b,c), alpha [degree]:                                    90.000000
 CELL| Angle (a,c), beta  [degree]:                                    90.000000
 CELL| Angle (a,b), gamma [degree]:                                    90.000000
 CELL| Numerically orthorhombic:                                             YES
 CELL| Periodicity                                                          NONE

 CELL_REF| Volume [angstrom^3]:                                     27000.000000
 CELL_REF| Vector a [angstrom    30.000     0.000     0.000   |a| =    30.000000
 CELL_REF| Vector b [angstrom     0.000    30.000     0.000   |b| =    30.000000
 CELL_REF| Vector c [angstrom     0.000     0.000    30.000   |c| =    30.000000
 CELL_REF| Angle (b,c), alpha [degree]:                                90.000000
 CELL_REF| Angle (a,c), beta  [degree]:                                90.000000
 CELL_REF| Angle (a,b), gamma [degree]:                                90.000000
 CELL_REF| Numerically orthorhombic:                                         YES
 CELL_REF| Periodicity                                                      NONE

 *******************************************************************************
 *******************************************************************************
 **                                                                           **
 **     #####                         ##              ##                      **
 **    ##   ##            ##          ##              ##                      **
 **   ##     ##                       ##            ######                    **
 **   ##     ##  ##   ##  ##   #####  ##  ##   ####   ##    #####    #####    **
 **   ##     ##  ##   ##  ##  ##      ## ##   ##      ##   ##   ##  ##   ##   **
 **   ##  ## ##  ##   ##  ##  ##      ####     ###    ##   ######   ######    **
 **    ##  ###   ##   ##  ##  ##      ## ##      ##   ##   ##       ##        **
 **     #######   #####   ##   #####  ##  ##  ####    ##    #####   ##        **
 **           ##                                                    ##        **
 **                                                                           **
 **                                                ... make the atoms dance   **
 **                                                                           **
 **            Copyright (C) by CP2K developers group (2000-2025)             **
 **                      J. Chem. Phys. 152, 194103 (2020)                    **
 **                                                                           **
 *******************************************************************************

 DFT| Spin restricted Kohn-Sham (RKS) calculation                            RKS
 DFT| Multiplicity                                                             1
 DFT| Number of spin states                                                    1
 DFT| Charge                                                                   0
 DFT| Self-interaction correction (SIC)                                       NO
 DFT| Cutoffs: density                                              1.000000E-10
 DFT|          gradient                                             1.000000E-10
 DFT|          tau                                                  1.000000E-10
 DFT|          cutoff_smoothing_range                               0.000000E+00
 DFT| XC density smoothing                                                  NONE
 DFT| XC derivatives                                                          PW

 FUNCTIONAL| PBE:
 FUNCTIONAL| J.P.Perdew, K.Burke, M.Ernzerhof, Phys. Rev. Letter, vol. 77, n 18,
 FUNCTIONAL|  pp. 3865-3868, (1996)sx=0.750sc=1.000{spin unpolarized}           


 QS| Method:                                                                GAPW
 QS| Density plane wave grid type                        NON-SPHERICAL FULLSPACE
 QS| Number of grid levels:                                                    4
 QS| Density cutoff [a.u.]:                                                250.0
 QS| Multi grid cutoff [a.u.]: 1) grid level                               250.0
 QS|                           2) grid level                                83.3
 QS|                           3) grid level                                27.8
 QS|                           4) grid level                                 9.3
 QS| Grid level progression factor:                                          3.0
 QS| Relative density cutoff [a.u.]:                                        50.0
 QS| Interaction thresholds: eps_pgf_orb:                                1.0E-12
 QS|                         eps_filter_matrix:                          0.0E+00
 QS|                         eps_core_charge:                            1.0E-14
 QS|                         eps_rho_gspace:                             1.0E-12
 QS|                         eps_rho_rspace:                             1.0E-12
 QS|                         eps_gvg_rspace:                             1.0E-06
 QS|                         eps_ppl:                                    1.0E-02
 QS|                         eps_ppnl:                                   1.0E-08
 QS| GAPW|      One center basis from orbital basis primitives
 QS| GAPW|                   eps_fit:                                    1.0E-04
 QS| GAPW|                   eps_iso:                                    1.0E-12
 QS| GAPW|                   eps_svd:                                    1.0E-08
 QS| GAPW|                   eps_cpc:                                    1.0E-12
 QS| GAPW|   atom-r-grid: quadrature:                                     GC_LOG
 QS| GAPW|      atom-s-grid:  max l :                                          4
 QS| GAPW|      max_l_rho0 :                                                   2


 ATOMIC KIND INFORMATION

  1. Atomic kind: C                                     Number of atoms:       2

     Orbital Basis Set                                      aug-SZV-MOLOPT-ae-SR

       Number of orbital shell sets:                                           2
       Number of orbital shells:                                               6
       Number of primitive Cartesian functions:                                7
       Number of Cartesian basis functions:                                   15
       Number of spherical basis functions:                                   14
       Norm type:                                                              2

       Normalised Cartesian orbitals:

                        Set   Shell   Orbital            Exponent    Coefficient

                          1       1    2s                0.114559       0.000000
                                                         0.222290       0.161536
                                                         0.683483       0.214036
                                                         2.941249      -0.160017

                          1       2    3s                0.114559       0.078076
                                                         0.222290       0.130402
                                                         0.683483      -0.084834
                                                         2.941249       0.041379

                          1       3    3px               0.114559       0.000000
                                                         0.222290       0.085276
                                                         0.683483       0.538304
                                                         2.941249       0.856045
                          1       3    3py               0.114559       0.000000
                                                         0.222290       0.085276
                                                         0.683483       0.538304
                                                         2.941249       0.856045
                          1       3    3pz               0.114559       0.000000
                                                         0.222290       0.085276
                                                         0.683483       0.538304
                                                         2.941249       0.856045

                          1       4    4px               0.114559       0.224492
                                                         0.222290      -0.546182
                                                         0.683483       0.918493
                                                         2.941249      -0.348342
                          1       4    4py               0.114559       0.224492
                                                         0.222290      -0.546182
                                                         0.683483       0.918493
                                                         2.941249      -0.348342
                          1       4    4pz               0.114559       0.224492
                                                         0.222290      -0.546182
                                                         0.683483       0.918493
                                                         2.941249      -0.348342

                          1       5    4dx2              0.114559       0.004023
                                                         0.222290       0.096934
                                                         0.683483       0.116751
                                                         2.941249       0.357653
                          1       5    4dxy              0.114559       0.006968
                                                         0.222290       0.167895
                                                         0.683483       0.202218
                                                         2.941249       0.619473
                          1       5    4dxz              0.114559       0.006968
                                                         0.222290       0.167895
                                                         0.683483       0.202218
                                                         2.941249       0.619473
                          1       5    4dy2              0.114559       0.004023
                                                         0.222290       0.096934
                                                         0.683483       0.116751
                                                         2.941249       0.357653
                          1       5    4dyz              0.114559       0.006968
                                                         0.222290       0.167895
                                                         0.683483       0.202218
                                                         2.941249       0.619473
                          1       5    4dz2              0.114559       0.004023
                                                         0.222290       0.096934
                                                         0.683483       0.116751
                                                         2.941249       0.357653

                          2       1    1s               71.616837       2.707814
                                                        13.045096       2.618880
                                                         3.530512       0.816191

     RI Auxiliary Basis Set             RI_aug-SZV-MOLOPT-ae-SR_N_RI_029_s_p_d_f

       Number of orbital shell sets:                                          11
       Number of orbital shells:                                              11
       Number of primitive Cartesian functions:                               11
       Number of Cartesian basis functions:                                   33
       Number of spherical basis functions:                                   29
       Norm type:                                                              2

       Normalised Cartesian orbitals:

                        Set   Shell   Orbital            Exponent    Coefficient

                          1       1    1s                0.275993       0.271384

                          2       1   10dx2              0.587304       0.648514
                          2       1   10dxy              0.587304       1.123259
                          2       1   10dxz              0.587304       1.123259
                          2       1   10dy2              0.587304       0.648514
                          2       1   10dyz              0.587304       1.123259
                          2       1   10dz2              0.587304       0.648514

                          3       1    6px               0.658795       0.846014
                          3       1    6py               0.658795       0.846014
                          3       1    6pz               0.658795       0.846014

                          4       1   11fx3              1.035652       1.592888
                          4       1   11fx2y             1.035652       3.561805
                          4       1   11fx2z             1.035652       3.561805
                          4       1   11fxy2             1.035652       3.561805
                          4       1   11fxyz             1.035652       6.169228
                          4       1   11fxz2             1.035652       3.561805
                          4       1   11fy3              1.035652       1.592888
                          4       1   11fy2z             1.035652       3.561805
                          4       1   11fyz2             1.035652       3.561805
                          4       1   11fz3              1.035652       1.592888

                          5       1    2s                1.092384       0.761538

                          6       1    7px               2.333195       4.110351
                          6       1    7py               2.333195       4.110351
                          6       1    7pz               2.333195       4.110351

                          7       1    3s                4.901987       2.347952

                          8       1    8px               6.348185      14.363228
                          8       1    8py               6.348185      14.363228
                          8       1    8pz               6.348185      14.363228

                          9       1    9px              17.637872      51.522606
                          9       1    9py              17.637872      51.522606
                          9       1    9pz              17.637872      51.522606

                         10       1    4s               20.273074       6.809258

                         11       1    5s               80.835140      19.213666

       Atomic covalent radius [Angstrom]:                                  0.770

       Atomic van der Waals radius [Angstrom]:                             1.700

     The atoms of this atomic kind are PAW atoms (GAPW):
       Hard Gaussian function radius:                                      1.512
       Rho0 radius:                                                        1.512
       Maximum GTO radius used for PAW projector construction:            24.566

     GAPW Soft Basis Set                               aug-SZV-MOLOPT-ae-SR_soft

       Number of orbital shell sets:                                           2
       Number of orbital shells:                                               6
       Number of primitive Cartesian functions:                                5
       Number of Cartesian basis functions:                                   15
       Number of spherical basis functions:                                   14
       Norm type:                                                              2

       Normalised Cartesian orbitals:

                        Set   Shell   Orbital            Exponent    Coefficient

                          1       1    2s                0.114559       0.000000
                                                         0.222290       0.161536
                                                         0.683483       0.214036
                                                         2.941249      -0.160017

                          1       2    3s                0.114559       0.078076
                                                         0.222290       0.130402
                                                         0.683483      -0.084834
                                                         2.941249       0.041379

                          1       3    3px               0.114559       0.000000
                                                         0.222290       0.085276
                                                         0.683483       0.538304
                                                         2.941249       0.856045
                          1       3    3py               0.114559       0.000000
                                                         0.222290       0.085276
                                                         0.683483       0.538304
                                                         2.941249       0.856045
                          1       3    3pz               0.114559       0.000000
                                                         0.222290       0.085276
                                                         0.683483       0.538304
                                                         2.941249       0.856045

                          1       4    4px               0.114559       0.224492
                                                         0.222290      -0.546182
                                                         0.683483       0.918493
                                                         2.941249      -0.348342
                          1       4    4py               0.114559       0.224492
                                                         0.222290      -0.546182
                                                         0.683483       0.918493
                                                         2.941249      -0.348342
                          1       4    4pz               0.114559       0.224492
                                                         0.222290      -0.546182
                                                         0.683483       0.918493
                                                         2.941249      -0.348342

                          1       5    4dx2              0.114559       0.004023
                                                         0.222290       0.096934
                                                         0.683483       0.116751
                                                         2.941249       0.357653
                          1       5    4dxy              0.114559       0.006968
                                                         0.222290       0.167895
                                                         0.683483       0.202218
                                                         2.941249       0.619473
                          1       5    4dxz              0.114559       0.006968
                                                         0.222290       0.167895
                                                         0.683483       0.202218
                                                         2.941249       0.619473
                          1       5    4dy2              0.114559       0.004023
                                                         0.222290       0.096934
                                                         0.683483       0.116751
                                                         2.941249       0.357653
                          1       5    4dyz              0.114559       0.006968
                                                         0.222290       0.167895
                                                         0.683483       0.202218
                                                         2.941249       0.619473
                          1       5    4dz2              0.114559       0.004023
                                                         0.222290       0.096934
                                                         0.683483       0.116751
                                                         2.941249       0.357653

                          2       1    1s                3.530512       0.816191

     AE Potential information for                                            ALL

       Description:                                       All-electron potential
                                          Krack, Parrinello, PCCP 2, 2105 (2000)

       Gaussian exponent of the core charge distribution:               4.109048
       Electronic configuration (s p d ...):                           4   2   0


 MOLECULE KIND INFORMATION


 All atoms are their own molecule, skipping detailed information


 TOTAL NUMBERS AND MAXIMUM NUMBERS

  Total number of            - Atomic kinds:                                   1
                             - Atoms:                                          2
                             - Shell sets:                                     4
                             - Shells:                                        12
                             - Primitive Cartesian functions:                 14
                             - Cartesian basis functions:                     30
                             - Spherical basis functions:                     28

  Maximum angular momentum of the orbital basis functions:                     2


 MODULE QUICKSTEP: ATOMIC COORDINATES IN ANGSTROM

   Atom Kind Element         X             Y             Z       Z(eff)     Mass
      1    1 C     6     15.620000     15.000000     15.000000   6.0000  12.0107
      2    1 C     6     14.380000     15.000000     15.000000   6.0000  12.0107



 SCF PARAMETERS         Density guess:                                    ATOMIC
                        --------------------------------------------------------
                        max_scf:                                             500
                        max_scf_history:                                       0
                        max_diis:                                              4
                        --------------------------------------------------------
                        eps_scf:                                        1.00E-06
                        eps_scf_history:                                0.00E+00
                        eps_diis:                                       1.00E-01
                        eps_eigval:                                     1.00E-05
                        --------------------------------------------------------
                        level_shift [a.u.]:                             0.000000
                        added MOs                                        22    0
                        --------------------------------------------------------
                        Mixing method:                            BROYDEN_MIXING
                                                charge density mixing in g-space
                        --------------------------------------------------------
                        No outer SCF

 PW_GRID| Information for grid number                                          1
 PW_GRID| Grid distributed over                                    24 processors
 PW_GRID| Real space group dimensions                                    24    1
 PW_GRID| the grid is blocked:                                                NO
 PW_GRID| Cutoff [a.u.]                                                    250.0
 PW_GRID| spherical cutoff:                                                   NO
 PW_GRID|   Bounds   1           -202     202                Points:         405
 PW_GRID|   Bounds   2           -202     202                Points:         405
 PW_GRID|   Bounds   3           -202     202                Points:         405
 PW_GRID| Volume element (a.u.^3)  0.2743E-02     Volume (a.u.^3)    182205.0337
 PW_GRID| Grid span                                                    FULLSPACE
 PW_GRID|   Distribution                         Average         Max         Min
 PW_GRID|   G-Vectors                          2767921.9     2768175     2767770
 PW_GRID|   G-Rays                                6834.4        6835        6834
 PW_GRID|   Real Space Points                  2767921.9     2788425     2624400

 PW_GRID| Information for grid number                                          2
 PW_GRID| Number of the reference grid                                         1
 PW_GRID| Grid distributed over                                    24 processors
 PW_GRID| Real space group dimensions                                    24    1
 PW_GRID| the grid is blocked:                                                NO
 PW_GRID| Cutoff [a.u.]                                                     83.3
 PW_GRID| spherical cutoff:                                                   NO
 PW_GRID|   Bounds   1           -120     119                Points:         240
 PW_GRID|   Bounds   2           -120     119                Points:         240
 PW_GRID|   Bounds   3           -120     119                Points:         240
 PW_GRID| Volume element (a.u.^3)  0.1318E-01     Volume (a.u.^3)    182205.0337
 PW_GRID| Grid span                                                    FULLSPACE
 PW_GRID|   Distribution                         Average         Max         Min
 PW_GRID|   G-Vectors                           576000.0      576240      575760
 PW_GRID|   G-Rays                                2400.0        2401        2399
 PW_GRID|   Real Space Points                   576000.0      576000      576000

 PW_GRID| Information for grid number                                          3
 PW_GRID| Number of the reference grid                                         1
 PW_GRID| Grid distributed over                                    24 processors
 PW_GRID| Real space group dimensions                                    24    1
 PW_GRID| the grid is blocked:                                                NO
 PW_GRID| Cutoff [a.u.]                                                     27.8
 PW_GRID| spherical cutoff:                                                   NO
 PW_GRID|   Bounds   1            -67      67                Points:         135
 PW_GRID|   Bounds   2            -67      67                Points:         135
 PW_GRID|   Bounds   3            -67      67                Points:         135
 PW_GRID| Volume element (a.u.^3)  0.7406E-01     Volume (a.u.^3)    182205.0337
 PW_GRID| Grid span                                                    FULLSPACE
 PW_GRID|   Distribution                         Average         Max         Min
 PW_GRID|   G-Vectors                           102515.6      102735      102330
 PW_GRID|   G-Rays                                 759.4         761         758
 PW_GRID|   Real Space Points                   102515.6      109350       91125

 PW_GRID| Information for grid number                                          4
 PW_GRID| Number of the reference grid                                         1
 PW_GRID| Grid distributed over                                    24 processors
 PW_GRID| Real space group dimensions                                    24    1
 PW_GRID| the grid is blocked:                                                NO
 PW_GRID| Cutoff [a.u.]                                                      9.3
 PW_GRID| spherical cutoff:                                                   NO
 PW_GRID|   Bounds   1            -40      39                Points:          80
 PW_GRID|   Bounds   2            -40      39                Points:          80
 PW_GRID|   Bounds   3            -40      39                Points:          80
 PW_GRID| Volume element (a.u.^3)  0.3559         Volume (a.u.^3)    182205.0337
 PW_GRID| Grid span                                                    FULLSPACE
 PW_GRID|   Distribution                         Average         Max         Min
 PW_GRID|   G-Vectors                            21333.3       21360       21280
 PW_GRID|   G-Rays                                 266.7         267         266
 PW_GRID|   Real Space Points                    21333.3       25600       19200

 POISSON| Solver                                                         WAVELET
 POISSON| Wavelet| Scaling function                                           40
 POISSON| Periodicity                                                       NONE

 RS_GRID| Information for grid number                                          1
 RS_GRID|   Bounds   1           -202     202                Points:         405
 RS_GRID|   Bounds   2           -202     202                Points:         405
 RS_GRID|   Bounds   3           -202     202                Points:         405
 RS_GRID| Real space distribution over                                  2 groups
 RS_GRID| Real space distribution along direction                              1
 RS_GRID| Border size                                                         27
 RS_GRID| Real space distribution over                                  3 groups
 RS_GRID| Real space distribution along direction                              2
 RS_GRID| Border size                                                         27
 RS_GRID| Real space distribution over                                  4 groups
 RS_GRID| Real space distribution along direction                              3
 RS_GRID| Border size                                                         27
 RS_GRID|   Distribution                         Average         Max         Min
 RS_GRID|   Planes                                 256.5         257         256
 RS_GRID|   Distribution                         Average         Max         Min
 RS_GRID|   Planes                                 189.0         189         189
 RS_GRID|   Distribution                         Average         Max         Min
 RS_GRID|   Planes                                 155.2         156         155

 RS_GRID| Information for grid number                                          2
 RS_GRID|   Bounds   1           -120     119                Points:         240
 RS_GRID|   Bounds   2           -120     119                Points:         240
 RS_GRID|   Bounds   3           -120     119                Points:         240
 RS_GRID| Real space distribution over                                  2 groups
 RS_GRID| Real space distribution along direction                              1
 RS_GRID| Border size                                                         33
 RS_GRID| Real space distribution over                                  3 groups
 RS_GRID| Real space distribution along direction                              2
 RS_GRID| Border size                                                         33
 RS_GRID| Real space distribution over                                  4 groups
 RS_GRID| Real space distribution along direction                              3
 RS_GRID| Border size                                                         33
 RS_GRID|   Distribution                         Average         Max         Min
 RS_GRID|   Planes                                 186.0         186         186
 RS_GRID|   Distribution                         Average         Max         Min
 RS_GRID|   Planes                                 146.0         146         146
 RS_GRID|   Distribution                         Average         Max         Min
 RS_GRID|   Planes                                 126.0         126         126

 RS_GRID| Information for grid number                                          3
 RS_GRID|   Bounds   1            -67      67                Points:         135
 RS_GRID|   Bounds   2            -67      67                Points:         135
 RS_GRID|   Bounds   3            -67      67                Points:         135
 RS_GRID| Real space fully replicated
 RS_GRID| Group size                                                           1

 RS_GRID| Information for grid number                                          4
 RS_GRID|   Bounds   1            -40      39                Points:          80
 RS_GRID|   Bounds   2            -40      39                Points:          80
 RS_GRID|   Bounds   3            -40      39                Points:          80
 RS_GRID| Real space fully replicated
 RS_GRID| Group size                                                           1

  HFX_INFO| Replica ID:                                                        1
  HFX_INFO| FRACTION:                                               0.2500000000
  HFX_INFO| Interaction Potential:                                       COULOMB
  HFX_INFO| EPS_SCHWARZ:                                                 1.0E-10
  HFX_INFO| EPS_SCHWARZ_FORCES                                           1.0E-08
  HFX_INFO| EPS_STORAGE_SCALING:                                         1.0E+00
  HFX_INFO| NBINS:                                                            64
  HFX_INFO| BLOCK_SIZE:                                                        1
  HFX_INFO| Number of periodic shells considered:                           NONE
  HFX_INFO| Number of periodic cells considered:                            NONE

 
 RI-RPA| using GPW style
 

 OVERLAP MATRIX CONDITION NUMBER
 1-Norm Condition Number (Estimate)
   CN : |A|*|A^-1|:  4.491E+000 *  4.358E+001   = 1.957E+002  Log(1-CN):  2.2916
 1-Norm and 2-Norm Condition Numbers using Diagonalization
   CN : |A|*|A^-1|:  4.491E+000 *  4.358E+001   = 1.957E+002  Log(1-CN):  2.2916
   CN : max/min ev:  3.409E+000 /  3.004E-002   = 1.135E+002  Log(2-CN):  2.0549

 Number of electrons:                                                         12
 Number of occupied orbitals:                                                  6
 Number of molecular orbitals:                                                28

 Number of orbital functions:                                                 28
 Number of independent orbital functions:                                     28

 Extrapolation method: initial_guess

 Atomic guess: The first density matrix is obtained in terms of atomic orbitals
               and electronic configurations assigned to each atomic kind

 Guess for atomic kind: C

 Electronic structure
    Total number of core electrons                                          0.00
    Total number of valence electrons                                       6.00
    Total number of electrons                                               6.00
    Multiplicity                                                   not specified
    S      2.00  2.00
    P      2.00


 *******************************************************************************
                  Iteration          Convergence                     Energy [au]
 *******************************************************************************
                          1        0.120726E-01                 -36.926036183281
                          2        0.325012E-02                 -36.926141945235
                          3        0.902334E-04                 -36.926147929717
                          4        0.764850E-06                 -36.926147934338

 Energy components [Hartree]           Total Energy ::          -36.926147934338
                                        Band Energy ::          -20.183008196204
                                     Kinetic Energy ::           37.060986405996
                                   Potential Energy ::          -73.987134340334
                                      Virial (-V/T) ::            1.996361713901
                                        Core Energy ::          -50.365260861891
                                          XC Energy ::           -4.835601506082
                                     Coulomb Energy ::           18.274714433635

 Orbital energies  State     L     Occupation   Energy[a.u.]          Energy[eV]

                       1     0          2.000      -9.613839         -261.605875
                       2     0          2.000      -0.408639          -11.119626

                       1     1          2.000      -0.069026           -1.878290


 Total Electron Density at R=0:                                        77.884899
 Re-scaling the density matrix to get the right number of electrons
                  # Electrons              Trace(P)               Scaling factor
                           12                12.000                        1.000


 SCF WAVEFUNCTION OPTIMIZATION

  Step     Update method      Time    Convergence         Total energy    Change
  ------------------------------------------------------------------------------

  HFX_MEM_INFO| Est. max. program size before HFX [MiB]:                    2075
  HFX_MEM_INFO| Number of cart. primitive ERI's calculated:             20481218
  HFX_MEM_INFO| Number of sph. ERI's calculated:                          230496
  HFX_MEM_INFO| Number of sph. ERI's stored in-core:                      230496
  HFX_MEM_INFO| Number of sph. ERI's stored on disk:                           0
  HFX_MEM_INFO| Number of sph. ERI's calculated on the fly:                    0
  HFX_MEM_INFO| Total memory consumption ERI's RAM [MiB]:                      2
  HFX_MEM_INFO| Whereof max-vals [MiB]:                                        1
  HFX_MEM_INFO| Total compression factor ERI's RAM:                         1.10
  HFX_MEM_INFO| Total memory consumption ERI's disk [MiB]:                     0
  HFX_MEM_INFO| Total compression factor ERI's disk:                        0.00
  HFX_MEM_INFO| Size of density/Fock matrix [MiB]:                             0
  HFX_MEM_INFO| Size of buffers [MiB]:                                         0
  HFX_MEM_INFO| Est. max. program size after HFX  [MiB]:                    2585

     1 NoMix/Diag. 0.10E+00    6.2     0.69396273       -75.0128930553 -7.50E+01
     2 Broy./Diag. 0.10E+00    4.8     0.02400987       -75.2360457130 -2.23E-01
     3 Broy./Diag. 0.10E+00    4.7     0.00265348       -75.1955811284  4.05E-02
     4 Broy./Diag. 0.10E+00    4.8     0.03899927       -74.9179940584  2.78E-01
     5 Broy./Diag. 0.10E+00    4.8     0.01097413       -74.8803517025  3.76E-02
     6 Broy./Diag. 0.10E+00    5.0     0.00228780       -74.8819322637 -1.58E-03
     7 Broy./Diag. 0.10E+00    5.0     0.00253442       -74.8884350247 -6.50E-03
     8 Broy./Diag. 0.10E+00    5.0     0.00044116       -74.8825147796  5.92E-03
     9 Broy./Diag. 0.10E+00    5.3     0.00776625       -74.8808378392  1.68E-03
    10 Broy./Diag. 0.10E+00    5.2     0.00349564       -74.8817181639 -8.80E-04
    11 Broy./Diag. 0.10E+00    5.2     0.00089914       -74.8861582887 -4.44E-03
    12 Broy./Diag. 0.10E+00    5.2     0.00435125       -74.8920091434 -5.85E-03
    13 Broy./Diag. 0.10E+00    5.2     0.00048818       -74.8881393534  3.87E-03
    14 Broy./Diag. 0.10E+00    5.4     0.00148511       -74.8838277593  4.31E-03
    15 Broy./Diag. 0.10E+00    5.3     0.00040376       -74.8845008579 -6.73E-04
    16 Broy./Diag. 0.10E+00    5.3     0.00047289       -74.8844941303  6.73E-06
    17 Broy./Diag. 0.10E+00    5.3     0.00009143       -74.8842063127  2.88E-04
    18 Broy./Diag. 0.10E+00    5.2     0.00036687       -74.8853621841 -1.16E-03
    19 Broy./Diag. 0.10E+00    5.2     0.00012845       -74.8862579842 -8.96E-04
    20 Broy./Diag. 0.10E+00    5.2     0.00032175       -74.8864375553 -1.80E-04
    21 Broy./Diag. 0.10E+00    5.2     0.00013870       -74.8853829878  1.05E-03
    22 Broy./Diag. 0.10E+00    5.2     0.00012733       -74.8850400686  3.43E-04
    23 Broy./Diag. 0.10E+00    5.3     0.00005985       -74.8850123541  2.77E-05
    24 Broy./Diag. 0.10E+00    5.2     0.00013859       -74.8847696487  2.43E-04
    25 Broy./Diag. 0.10E+00    5.2     0.00011511       -74.8846606383  1.09E-04
    26 Broy./Diag. 0.10E+00    5.2     0.00008448       -74.8848113056 -1.51E-04
    27 Broy./Diag. 0.10E+00    5.2     0.00004525       -74.8848464519 -3.51E-05
    28 Broy./Diag. 0.10E+00    5.2     0.00004588       -74.8848067789  3.97E-05
    29 Broy./Diag. 0.10E+00    5.3     0.00007157       -74.8848212818 -1.45E-05
    30 Broy./Diag. 0.10E+00    5.3     0.00002567       -74.8848078292  1.35E-05
    31 Broy./Diag. 0.10E+00    5.3     0.00007281       -74.8847777440  3.01E-05
    32 Broy./Diag. 0.10E+00    5.2     0.00002835       -74.8847948142 -1.71E-05
    33 Broy./Diag. 0.10E+00    5.2     0.00004572       -74.8847735870  2.12E-05
    34 Broy./Diag. 0.10E+00    5.3     0.00001458       -74.8847929235 -1.93E-05
    35 Broy./Diag. 0.10E+00    5.2     0.00002814       -74.8848043805 -1.15E-05
    36 Broy./Diag. 0.10E+00    5.2     0.00003604       -74.8847914017  1.30E-05
    37 Broy./Diag. 0.10E+00    5.3     0.00002957       -74.8847896984  1.70E-06
    38 Broy./Diag. 0.10E+00    5.2     0.00002341       -74.8847926524 -2.95E-06
    39 Broy./Diag. 0.10E+00    5.3     0.00003896       -74.8847705106  2.21E-05
    40 Broy./Diag. 0.10E+00    5.2     0.00003062       -74.8847437386  2.68E-05
    41 Broy./Diag. 0.10E+00    5.2     0.00002258       -74.8847491156 -5.38E-06
    42 Broy./Diag. 0.10E+00    5.2     0.00002627       -74.8847504145 -1.30E-06
    43 Broy./Diag. 0.10E+00    5.3     0.00001853       -74.8847426061  7.81E-06
    44 Broy./Diag. 0.10E+00    5.2     0.00002131       -74.8847536188 -1.10E-05
    45 Broy./Diag. 0.10E+00    5.2     0.00002368       -74.8847578070 -4.19E-06
    46 Broy./Diag. 0.10E+00    5.2     0.00001611       -74.8847542036  3.60E-06
    47 Broy./Diag. 0.10E+00    5.2     0.00001905       -74.8847553444 -1.14E-06
    48 Broy./Diag. 0.10E+00    5.2     0.00001939       -74.8847548090  5.35E-07
    49 Broy./Diag. 0.10E+00    5.2     0.00001476       -74.8847543000  5.09E-07
    50 Broy./Diag. 0.10E+00    5.2     0.00000667       -74.8847554434 -1.14E-06
    51 Broy./Diag. 0.10E+00    5.2     0.00001178       -74.8847579212 -2.48E-06
    52 Broy./Diag. 0.10E+00    5.3     0.00000909       -74.8847611284 -3.21E-06
    53 Broy./Diag. 0.10E+00    5.2     0.00000554       -74.8847602470  8.81E-07
    54 Broy./Diag. 0.10E+00    5.2     0.00000745       -74.8847546828  5.56E-06
    55 Broy./Diag. 0.10E+00    5.2     0.00001003       -74.8847489310  5.75E-06
    56 Broy./Diag. 0.10E+00    5.2     0.00001330       -74.8847428549  6.08E-06
    57 Broy./Diag. 0.10E+00    5.3     0.00001764       -74.8847097712  3.31E-05
    58 Broy./Diag. 0.10E+00    5.2     0.00005828       -74.8847039326  5.84E-06
    59 Broy./Diag. 0.10E+00    5.3     0.00007481       -74.8847102271 -6.29E-06
    60 Broy./Diag. 0.10E+00    5.2     0.00006967       -74.8847087267  1.50E-06
    61 Broy./Diag. 0.10E+00    5.3     0.00007523       -74.8847417987 -3.31E-05
    62 Broy./Diag. 0.10E+00    5.2     0.00010512       -74.8847529109 -1.11E-05
    63 Broy./Diag. 0.10E+00    5.3     0.00013939       -74.8847219910  3.09E-05
    64 Broy./Diag. 0.10E+00    5.2     0.00019120       -74.8847230138 -1.02E-06
    65 Broy./Diag. 0.10E+00    5.2     0.00027357       -74.8846915551  3.15E-05
    66 Broy./Diag. 0.10E+00    5.3     0.00037173       -74.8847397231 -4.82E-05
    67 Broy./Diag. 0.10E+00    5.2     0.00052619       -74.8847235412  1.62E-05
    68 Broy./Diag. 0.10E+00    5.2     0.00073145       -74.8847275830 -4.04E-06
    69 Broy./Diag. 0.10E+00    5.3     0.00101618       -74.8847225420  5.04E-06
    70 Broy./Diag. 0.10E+00    5.3     0.00141554       -74.8847245308 -1.99E-06
    71 Broy./Diag. 0.10E+00    5.2     0.00196971       -74.8847261095 -1.58E-06
    72 Broy./Diag. 0.10E+00    5.2     0.00273363       -74.8846941401  3.20E-05
    73 Broy./Diag. 0.10E+00    5.2     0.00379456       -74.8846538910  4.02E-05
    74 Broy./Diag. 0.10E+00    5.2     0.00527033       -74.8845666780  8.72E-05
    75 Broy./Diag. 0.10E+00    5.2     0.00728272       -74.8846169045 -5.02E-05
    76 Broy./Diag. 0.10E+00    5.3     0.01008450       -74.8845114445  1.05E-04
    77 Broy./Diag. 0.10E+00    5.3     0.01386838       -74.8843109351  2.01E-04
    78 Broy./Diag. 0.10E+00    5.3     0.01886636       -74.8838692215  4.42E-04
    79 Broy./Diag. 0.10E+00    5.2     0.02516022       -74.8830400218  8.29E-04
    80 Broy./Diag. 0.10E+00    5.2     0.03231091       -74.8814890511  1.55E-03
    81 Broy./Diag. 0.10E+00    5.2     0.03867626       -74.8785486243  2.94E-03
    82 Broy./Diag. 0.10E+00    5.3     0.05947695       -74.8734121779  5.14E-03
    83 Broy./Diag. 0.10E+00    5.2     0.08447295       -74.8649689059  8.44E-03
    84 Broy./Diag. 0.10E+00    5.3     0.10256394       -74.8530039565  1.20E-02
    85 Broy./Diag. 0.10E+00    5.2     0.10406868       -74.8377751790  1.52E-02
    86 Broy./Diag. 0.10E+00    5.2     0.08959619       -74.8217338581  1.60E-02
    87 Broy./Diag. 0.10E+00    5.2     0.06776001       -74.8075481034  1.42E-02
    88 Broy./Diag. 0.10E+00    5.2     0.04674246       -74.7968205432  1.07E-02
    89 Broy./Diag. 0.10E+00    5.3     0.03204551       -74.7896320485  7.19E-03
    90 Broy./Diag. 0.10E+00    5.2     0.02741050       -74.7850037552  4.63E-03
    91 Broy./Diag. 0.10E+00    5.2     0.02236626       -74.7820238309  2.98E-03
    92 Broy./Diag. 0.10E+00    5.2     0.01737713       -74.7799960563  2.03E-03
    93 Broy./Diag. 0.10E+00    5.2     0.01287494       -74.7795075231  4.89E-04
    94 Broy./Diag. 0.10E+00    5.2     0.00933791       -74.7759254717  3.58E-03
    95 Broy./Diag. 0.10E+00    5.2     0.00659649       -74.7763777215 -4.52E-04
    96 Broy./Diag. 0.10E+00    5.2     0.00354978       -74.7639664977  1.24E-02
    97 Broy./Diag. 0.10E+00    5.2     0.01745266       -74.8153286947 -5.14E-02
    98 Broy./Diag. 0.10E+00    5.2     0.01167521       -74.8522431843 -3.69E-02
    99 Broy./Diag. 0.10E+00    5.2     0.02320330       -74.9079092699 -5.57E-02

 *** WARNING in pw/ps_wavelet_methods.F:238 :: Density non-zero on the ***
 *** edges of the unit cell: wrong results in WAVELET solver           ***

   100 Broy./Diag. 0.10E+00    5.2     0.04232533       -75.0542666698 -1.46E-01

 *** WARNING in pw/ps_wavelet_methods.F:238 :: Density non-zero on the ***
 *** edges of the unit cell: wrong results in WAVELET solver           ***

   101 Broy./Diag. 0.10E+00    5.2     0.07302832       -75.1183051590 -6.40E-02
   102 Broy./Diag. 0.10E+00    5.2     0.10429701       -75.0347487118  8.36E-02

 *** WARNING in pw/ps_wavelet_methods.F:238 :: Density non-zero on the ***
 *** edges of the unit cell: wrong results in WAVELET solver           ***

   103 Broy./Diag. 0.10E+00    5.3     0.15867061       -75.0699084425 -3.52E-02

 *** WARNING in pw/ps_wavelet_methods.F:238 :: Density non-zero on the ***
 *** edges of the unit cell: wrong results in WAVELET solver           ***

   104 Broy./Diag. 0.10E+00    5.2     0.16295630       -75.0746591246 -4.75E-03
   105 Broy./Diag. 0.10E+00    5.2     0.05266353       -74.8383756812  2.36E-01
   106 Broy./Diag. 0.10E+00    5.3     0.08769401       -74.9225179309 -8.41E-02
   107 Broy./Diag. 0.10E+00    5.3     0.12852601       -74.9805647122 -5.80E-02
   108 Broy./Diag. 0.10E+00    5.2     0.09236327       -74.9560485538  2.45E-02
   109 Broy./Diag. 0.10E+00    5.3     0.18458806       -74.8261182223  1.30E-01
   110 Broy./Diag. 0.10E+00    5.2     0.21790386       -74.8557652032 -2.96E-02
   111 Broy./Diag. 0.10E+00    5.2     0.10522623       -74.8874840396 -3.17E-02
   112 Broy./Diag. 0.10E+00    5.3     0.04943109       -74.9087485707 -2.13E-02
   113 Broy./Diag. 0.10E+00    5.2     0.06497249       -74.9901040737 -8.14E-02
   114 Broy./Diag. 0.10E+00    5.4     0.22944759       -75.0246314009 -3.45E-02
   115 Broy./Diag. 0.10E+00    5.3     0.23628504       -75.0185254295  6.11E-03
   116 Broy./Diag. 0.10E+00    5.2     0.10898943       -74.9804483031  3.81E-02
   117 Broy./Diag. 0.10E+00    5.2     0.06537820       -74.9557470426  2.47E-02
   118 Broy./Diag. 0.10E+00    5.2     0.04695629       -74.9561995171 -4.52E-04
   119 Broy./Diag. 0.10E+00    5.2     0.01824845       -74.9673071047 -1.11E-02
   120 Broy./Diag. 0.10E+00    5.2     0.02768554       -74.9465590872  2.07E-02
   121 Broy./Diag. 0.10E+00    5.2     0.09378220       -74.9062644363  4.03E-02
   122 Broy./Diag. 0.10E+00    5.2     0.15290708       -74.8991328293  7.13E-03
   123 Broy./Diag. 0.10E+00    5.2     0.19028697       -74.8531573942  4.60E-02
   124 Broy./Diag. 0.10E+00    5.2     0.08703563       -74.9053371982 -5.22E-02
   125 Broy./Diag. 0.10E+00    5.3     0.07148535       -74.8736623015  3.17E-02
   126 Broy./Diag. 0.10E+00    5.2     0.04578923       -74.8697608298  3.90E-03
   127 Broy./Diag. 0.10E+00    5.2     0.03553836       -74.8511522718  1.86E-02
   128 Broy./Diag. 0.10E+00    5.2     0.03126410       -74.8583865760 -7.23E-03
   129 Broy./Diag. 0.10E+00    5.3     0.02834754       -74.8766026571 -1.82E-02
   130 Broy./Diag. 0.10E+00    5.2     0.02269525       -74.8849023365 -8.30E-03
   131 Broy./Diag. 0.10E+00    5.2     0.01760823       -74.8985082059 -1.36E-02
   132 Broy./Diag. 0.10E+00    5.3     0.03949386       -74.9065058159 -8.00E-03
   133 Broy./Diag. 0.10E+00    5.3     0.03617233       -74.9793316280 -7.28E-02
   134 Broy./Diag. 0.10E+00    5.2     0.07946603       -75.0000003815 -2.07E-02
   135 Broy./Diag. 0.10E+00    5.3     0.15040894       -74.9974340791  2.57E-03
   136 Broy./Diag. 0.10E+00    5.2     0.13047125       -74.9739513245  2.35E-02
   137 Broy./Diag. 0.10E+00    5.3     0.16271656       -74.9638592660  1.01E-02
   138 Broy./Diag. 0.10E+00    5.4     0.09554873       -74.9192615743  4.46E-02
   139 Broy./Diag. 0.10E+00    5.3     0.05869666       -74.8555557649  6.37E-02
   140 Broy./Diag. 0.10E+00    5.2     0.04651410       -74.8763576940 -2.08E-02
   141 Broy./Diag. 0.10E+00    5.3     0.04046441       -74.8743875989  1.97E-03
   142 Broy./Diag. 0.10E+00    5.2     0.02824139       -74.8706835106  3.70E-03
   143 Broy./Diag. 0.10E+00    5.2     0.03241498       -74.8689787041  1.70E-03
   144 Broy./Diag. 0.10E+00    5.3     0.07903810       -74.8441410662  2.48E-02
   145 Broy./Diag. 0.10E+00    5.2     0.07504173       -74.8757979392 -3.17E-02
   146 Broy./Diag. 0.10E+00    5.3     0.01779874       -74.9166843230 -4.09E-02
   147 Broy./Diag. 0.10E+00    5.3     0.00617696       -74.9105917278  6.09E-03
   148 Broy./Diag. 0.10E+00    5.2     0.01804086       -74.9419716541 -3.14E-02
   149 Broy./Diag. 0.10E+00    5.2     0.02424805       -74.9856191457 -4.36E-02

 *** WARNING in pw/ps_wavelet_methods.F:238 :: Density non-zero on the ***
 *** edges of the unit cell: wrong results in WAVELET solver           ***

   150 Broy./Diag. 0.10E+00    5.3     0.07779855       -75.0253172517 -3.97E-02

 *** WARNING in pw/ps_wavelet_methods.F:238 :: Density non-zero on the ***
 *** edges of the unit cell: wrong results in WAVELET solver           ***

   151 Broy./Diag. 0.10E+00    5.2     0.08996419       -75.0168979170  8.42E-03
   152 Broy./Diag. 0.10E+00    5.2     0.09947768       -74.8815466143  1.35E-01
   153 Broy./Diag. 0.10E+00    5.2     0.10792877       -74.8810199335  5.27E-04
   154 Broy./Diag. 0.10E+00    5.2     0.10806095       -74.8512626112  2.98E-02
   155 Broy./Diag. 0.10E+00    5.3     0.11168308       -74.8126021588  3.87E-02
   156 Broy./Diag. 0.10E+00    5.2     0.07533558       -74.7828221900  2.98E-02
   157 Broy./Diag. 0.10E+00    5.3     0.03680999       -74.7859791133 -3.16E-03
   158 Broy./Diag. 0.10E+00    5.2     0.02463419       -74.8378034741 -5.18E-02
   159 Broy./Diag. 0.10E+00    5.2     0.00748094       -74.8654653043 -2.77E-02
   160 Broy./Diag. 0.10E+00    5.3     0.01643120       -74.9084374458 -4.30E-02
   161 Broy./Diag. 0.10E+00    5.2     0.01182105       -74.8965872583  1.19E-02
   162 Broy./Diag. 0.10E+00    5.2     0.02669288       -74.9479945024 -5.14E-02
   163 Broy./Diag. 0.10E+00    5.3     0.12186930       -74.9798079882 -3.18E-02

 *** WARNING in pw/ps_wavelet_methods.F:238 :: Density non-zero on the ***
 *** edges of the unit cell: wrong results in WAVELET solver           ***

   164 Broy./Diag. 0.10E+00    5.2     0.25274137       -75.0056506425 -2.58E-02
   165 Broy./Diag. 0.10E+00    5.2     0.12192042       -74.9811895698  2.45E-02
   166 Broy./Diag. 0.10E+00    5.2     0.05183350       -74.9294548126  5.17E-02
   167 Broy./Diag. 0.10E+00    5.2     0.04456475       -74.9482942165 -1.88E-02
   168 Broy./Diag. 0.10E+00    5.2     0.02460771       -74.9414211117  6.87E-03
   169 Broy./Diag. 0.10E+00    5.2     0.02013262       -74.9420507126 -6.30E-04
   170 Broy./Diag. 0.10E+00    5.2     0.05009146       -74.9087735775  3.33E-02
   171 Broy./Diag. 0.10E+00    5.2     0.06673775       -74.9053361816  3.44E-03
   172 Broy./Diag. 0.10E+00    5.3     0.11057873       -74.8823031213  2.30E-02
   173 Broy./Diag. 0.10E+00    5.2     0.14097589       -74.8656781727  1.66E-02
   174 Broy./Diag. 0.10E+00    5.3     0.07525521       -74.8902514673 -2.46E-02
   175 Broy./Diag. 0.10E+00    5.2     0.06248267       -74.8894513756  8.00E-04
   176 Broy./Diag. 0.10E+00    5.3     0.05661071       -74.8823928915  7.06E-03
   177 Broy./Diag. 0.10E+00    5.3     0.04691226       -74.8741611102  8.23E-03
   178 Broy./Diag. 0.10E+00    5.3     0.03778186       -74.8800326983 -5.87E-03
   179 Broy./Diag. 0.10E+00    5.2     0.04325846       -74.8702915524  9.74E-03
   180 Broy./Diag. 0.10E+00    5.2     0.03407566       -74.9332971179 -6.30E-02
   181 Broy./Diag. 0.10E+00    5.2     0.03587302       -74.9437242568 -1.04E-02
   182 Broy./Diag. 0.10E+00    5.4     0.02579464       -74.9129909761  3.07E-02
   183 Broy./Diag. 0.10E+00    5.2     0.01638891       -74.8781705095  3.48E-02
   184 Broy./Diag. 0.10E+00    5.2     0.02496038       -74.8814030593 -3.23E-03
   185 Broy./Diag. 0.10E+00    5.2     0.05673463       -74.8902264880 -8.82E-03
   186 Broy./Diag. 0.10E+00    5.3     0.07736298       -74.8812962428  8.93E-03
   187 Broy./Diag. 0.10E+00    5.2     0.13135873       -74.8974295144 -1.61E-02
   188 Broy./Diag. 0.10E+00    5.3     0.11730823       -74.9133056463 -1.59E-02
   189 Broy./Diag. 0.10E+00    5.3     0.08466581       -74.9123665807  9.39E-04
   190 Broy./Diag. 0.10E+00    5.2     0.11625975       -74.9144606741 -2.09E-03
   191 Broy./Diag. 0.10E+00    5.2     0.06906571       -74.9398635405 -2.54E-02
   192 Broy./Diag. 0.10E+00    5.2     0.05241610       -74.9231160092  1.67E-02
   193 Broy./Diag. 0.10E+00    5.3     0.03250974       -74.9281623407 -5.05E-03
   194 Broy./Diag. 0.10E+00    5.2     0.02494587       -74.9294472210 -1.28E-03
   195 Broy./Diag. 0.10E+00    5.2     0.02463337       -74.9192973583  1.01E-02
   196 Broy./Diag. 0.10E+00    5.2     0.03137414       -74.9187564925  5.41E-04
   197 Broy./Diag. 0.10E+00    5.2     0.03694804       -74.9283610353 -9.60E-03
   198 Broy./Diag. 0.10E+00    5.3     0.04040201       -74.8766999388  5.17E-02
   199 Broy./Diag. 0.10E+00    5.3     0.06904763       -74.8405067537  3.62E-02
   200 Broy./Diag. 0.10E+00    5.3     0.05801149       -74.8464912389 -5.98E-03
   201 Broy./Diag. 0.10E+00    5.2     0.03759757       -74.8621441220 -1.57E-02
   202 Broy./Diag. 0.10E+00    5.2     0.05843155       -74.8487037268  1.34E-02
   203 Broy./Diag. 0.10E+00    5.2     0.04778245       -74.8443351119  4.37E-03
   204 Broy./Diag. 0.10E+00    5.2     0.04228566       -74.8295553508  1.48E-02
   205 Broy./Diag. 0.10E+00    5.3     0.04719725       -74.8106279269  1.89E-02
   206 Broy./Diag. 0.10E+00    5.2     0.04357053       -74.7970297006  1.36E-02
   207 Broy./Diag. 0.10E+00    5.3     0.04055094       -74.7953194478  1.71E-03
   208 Broy./Diag. 0.10E+00    5.2     0.03957069       -74.7911347079  4.18E-03
   209 Broy./Diag. 0.10E+00    5.3     0.05795458       -74.7870302776  4.10E-03
   210 Broy./Diag. 0.10E+00    5.3     0.08451290       -74.7991082623 -1.21E-02
   211 Broy./Diag. 0.10E+00    5.2     0.08787585       -74.8105388801 -1.14E-02
   212 Broy./Diag. 0.10E+00    5.2     0.10626975       -74.8112325159 -6.94E-04
   213 Broy./Diag. 0.10E+00    5.3     0.08801093       -74.8055055444  5.73E-03
   214 Broy./Diag. 0.10E+00    5.2     0.10924001       -74.8380335775 -3.25E-02
   215 Broy./Diag. 0.10E+00    5.2     0.12276458       -74.9040545592 -6.60E-02
   216 Broy./Diag. 0.10E+00    5.2     0.06619995       -74.8951466032  8.91E-03
   217 Broy./Diag. 0.10E+00    5.2     0.07224482       -74.8645770966  3.06E-02
   218 Broy./Diag. 0.10E+00    5.2     0.07515638       -74.8568491780  7.73E-03
   219 Broy./Diag. 0.10E+00    5.2     0.05100269       -74.8682206412 -1.14E-02
   220 Broy./Diag. 0.10E+00    5.2     0.02291991       -74.8831824488 -1.50E-02
   221 Broy./Diag. 0.10E+00    5.3     0.06557718       -74.8611268790  2.21E-02
   222 Broy./Diag. 0.10E+00    5.2     0.11061219       -74.8351076589  2.60E-02
   223 Broy./Diag. 0.10E+00    5.4     0.13152504       -74.8276922069  7.42E-03
   224 Broy./Diag. 0.10E+00    5.2     0.09625461       -74.8485424205 -2.09E-02
   225 Broy./Diag. 0.10E+00    5.2     0.09889810       -74.8771413143 -2.86E-02
   226 Broy./Diag. 0.10E+00    5.3     0.09392846       -74.9086352284 -3.15E-02
   227 Broy./Diag. 0.10E+00    5.2     0.08783595       -74.9241457875 -1.55E-02
   228 Broy./Diag. 0.10E+00    5.2     0.07732534       -74.9397609004 -1.56E-02
   229 Broy./Diag. 0.10E+00    5.2     0.04207434       -74.9354175568  4.34E-03
   230 Broy./Diag. 0.10E+00    5.2     0.04429428       -74.9327027898  2.71E-03
   231 Broy./Diag. 0.10E+00    5.2     0.04523897       -74.9320689726  6.34E-04
   232 Broy./Diag. 0.10E+00    5.3     0.04907020       -74.9270325908  5.04E-03
   233 Broy./Diag. 0.10E+00    5.2     0.03584016       -74.9159717179  1.11E-02
   234 Broy./Diag. 0.10E+00    5.2     0.02176923       -74.9030713581  1.29E-02
   235 Broy./Diag. 0.10E+00    5.3     0.01743683       -74.9017210752  1.35E-03
   236 Broy./Diag. 0.10E+00    5.2     0.02712310       -74.9058391602 -4.12E-03
   237 Broy./Diag. 0.10E+00    5.2     0.02866356       -74.9145648465 -8.73E-03
   238 Broy./Diag. 0.10E+00    5.3     0.02363332       -74.9089397806  5.63E-03
   239 Broy./Diag. 0.10E+00    5.2     0.02515908       -74.8990170454  9.92E-03
   240 Broy./Diag. 0.10E+00    5.3     0.02963828       -74.8837085884  1.53E-02
   241 Broy./Diag. 0.10E+00    5.2     0.02904922       -74.8741076252  9.60E-03
   242 Broy./Diag. 0.10E+00    5.2     0.01738700       -74.8657670530  8.34E-03
   243 Broy./Diag. 0.10E+00    5.2     0.01361700       -74.8628918279  2.88E-03
   244 Broy./Diag. 0.10E+00    5.3     0.01463223       -74.8609173515  1.97E-03
   245 Broy./Diag. 0.10E+00    5.3     0.02533616       -74.8622674388 -1.35E-03
   246 Broy./Diag. 0.10E+00    5.2     0.01806301       -74.8834261815 -2.12E-02
   247 Broy./Diag. 0.10E+00    5.2     0.06962327       -74.8652676158  1.82E-02
   248 Broy./Diag. 0.10E+00    5.2     0.07049369       -74.8371683036  2.81E-02
   249 Broy./Diag. 0.10E+00    5.3     0.04934751       -74.8311780069  5.99E-03
   250 Broy./Diag. 0.10E+00    5.2     0.02597983       -74.8632214195 -3.20E-02
   251 Broy./Diag. 0.10E+00    5.2     0.08743253       -74.8749116864 -1.17E-02
   252 Broy./Diag. 0.10E+00    5.2     0.07739196       -74.8791759294 -4.26E-03
   253 Broy./Diag. 0.10E+00    5.2     0.04450306       -74.8760944856  3.08E-03
   254 Broy./Diag. 0.10E+00    5.2     0.04129611       -74.8738876547  2.21E-03
   255 Broy./Diag. 0.10E+00    5.2     0.04271780       -74.8651892756  8.70E-03
   256 Broy./Diag. 0.10E+00    5.2     0.06997221       -74.8563664462  8.82E-03
   257 Broy./Diag. 0.10E+00    5.3     0.07149513       -74.8346610320  2.17E-02
   258 Broy./Diag. 0.10E+00    5.3     0.07423089       -74.8371648717 -2.50E-03
   259 Broy./Diag. 0.10E+00    5.2     0.05264340       -74.8189980239  1.82E-02
   260 Broy./Diag. 0.10E+00    5.3     0.03407951       -74.8060789576  1.29E-02
   261 Broy./Diag. 0.10E+00    5.3     0.19201203       -74.7922727431  1.38E-02
   262 Broy./Diag. 0.10E+00    5.3     0.07641394       -74.6486092442  1.44E-01
   263 Broy./Diag. 0.10E+00    5.3     0.05954944       -74.5946759145  5.39E-02
   264 Broy./Diag. 0.10E+00    5.3     0.10882612       -74.6745969964 -7.99E-02
   265 Broy./Diag. 0.10E+00    5.2     0.12538206       -74.7757949925 -1.01E-01
   266 Broy./Diag. 0.10E+00    5.3     0.09435099       -74.8370531497 -6.13E-02
   267 Broy./Diag. 0.10E+00    5.2     0.05059602       -74.8644397348 -2.74E-02
   268 Broy./Diag. 0.10E+00    5.2     0.10520979       -74.8740735915 -9.63E-03
   269 Broy./Diag. 0.10E+00    5.3     0.10200260       -74.9048307149 -3.08E-02
   270 Broy./Diag. 0.10E+00    5.3     0.08543000       -74.8708243937  3.40E-02
   271 Broy./Diag. 0.10E+00    5.3     0.06849532       -74.8443204385  2.65E-02
   272 Broy./Diag. 0.10E+00    5.2     0.04588996       -74.8103765142  3.39E-02
   273 Broy./Diag. 0.10E+00    5.3     0.03194296       -74.7780751298  3.23E-02
   274 Broy./Diag. 0.10E+00    5.3     0.05546642       -74.7613883605  1.67E-02
   275 Broy./Diag. 0.10E+00    5.3     0.02911128       -74.7212432815  4.01E-02
   276 Broy./Diag. 0.10E+00    5.2     0.09502275       -74.7405327513 -1.93E-02
   277 Broy./Diag. 0.10E+00    5.2     0.09613503       -74.8010872701 -6.06E-02
   278 Broy./Diag. 0.10E+00    5.3     0.04934745       -74.8477827378 -4.67E-02
   279 Broy./Diag. 0.10E+00    5.2     0.02152212       -74.8600119183 -1.22E-02
   280 Broy./Diag. 0.10E+00    5.2     0.04452338       -74.8787721134 -1.88E-02
   281 Broy./Diag. 0.10E+00    5.2     0.05790725       -74.8771374362  1.63E-03
   282 Broy./Diag. 0.10E+00    5.3     0.04205797       -74.8875477645 -1.04E-02
   283 Broy./Diag. 0.10E+00    5.3     0.01337166       -74.8886031780 -1.06E-03
   284 Broy./Diag. 0.10E+00    5.3     0.01044314       -74.8855695839  3.03E-03
   285 Broy./Diag. 0.10E+00    5.3     0.00820611       -74.8841018790  1.47E-03
   286 Broy./Diag. 0.10E+00    5.2     0.01192451       -74.8818213776  2.28E-03
   287 Broy./Diag. 0.10E+00    5.3     0.00496165       -74.8804314535  1.39E-03
   288 Broy./Diag. 0.10E+00    5.2     0.00611745       -74.8800415772  3.90E-04
   289 Broy./Diag. 0.10E+00    5.3     0.00596413       -74.8788937356  1.15E-03
   290 Broy./Diag. 0.10E+00    5.2     0.00730817       -74.8784385485  4.55E-04
   291 Broy./Diag. 0.10E+00    5.2     0.01240045       -74.8782708316  1.68E-04
   292 Broy./Diag. 0.10E+00    5.3     0.01417583       -74.8794150695 -1.14E-03
   293 Broy./Diag. 0.10E+00    5.2     0.01767732       -74.8815400289 -2.12E-03
   294 Broy./Diag. 0.10E+00    5.2     0.02463263       -74.8787669655  2.77E-03
   295 Broy./Diag. 0.10E+00    5.2     0.03550902       -74.8752158625  3.55E-03
   296 Broy./Diag. 0.10E+00    5.3     0.04427751       -74.8771556966 -1.94E-03
   297 Broy./Diag. 0.10E+00    5.3     0.07911810       -74.8781698301 -1.01E-03
   298 Broy./Diag. 0.10E+00    5.2     0.09760892       -74.8709650168  7.20E-03
   299 Broy./Diag. 0.10E+00    5.2     0.10192455       -74.8560037753  1.50E-02
   300 Broy./Diag. 0.10E+00    5.2     0.09667695       -74.8394739145  1.65E-02
   301 Broy./Diag. 0.10E+00    5.3     0.09106853       -74.8234659050  1.60E-02
   302 Broy./Diag. 0.10E+00    5.2     0.06901812       -74.8261625988 -2.70E-03
   303 Broy./Diag. 0.10E+00    5.3     0.05921386       -74.8283850682 -2.22E-03
   304 Broy./Diag. 0.10E+00    5.2     0.04566061       -74.8379230609 -9.54E-03
   305 Broy./Diag. 0.10E+00    5.2     0.03850917       -74.8327356695  5.19E-03
   306 Broy./Diag. 0.10E+00    5.3     0.02788600       -74.8047929537  2.79E-02
   307 Broy./Diag. 0.10E+00    5.2     0.01742074       -74.7986614229  6.13E-03
   308 Broy./Diag. 0.10E+00    5.3     0.04086156       -74.8204888672 -2.18E-02
   309 Broy./Diag. 0.10E+00    5.2     0.05942160       -74.8253828924 -4.89E-03
   310 Broy./Diag. 0.10E+00    5.3     0.05142648       -74.8226107553  2.77E-03
   311 Broy./Diag. 0.10E+00    5.2     0.06355904       -74.8336425399 -1.10E-02
   312 Broy./Diag. 0.10E+00    5.2     0.08957898       -74.8837190392 -5.01E-02
   313 Broy./Diag. 0.10E+00    5.2     0.07592578       -74.8650621463  1.87E-02
   314 Broy./Diag. 0.10E+00    5.2     0.07435877       -74.8993889123 -3.43E-02
   315 Broy./Diag. 0.10E+00    5.2     0.09354346       -74.8814473250  1.79E-02
   316 Broy./Diag. 0.10E+00    5.2     0.06963091       -74.8550128881  2.64E-02
   317 Broy./Diag. 0.10E+00    5.2     0.06482097       -74.8820997574 -2.71E-02
   318 Broy./Diag. 0.10E+00    5.3     0.09843589       -74.9785249832 -9.64E-02
   319 Broy./Diag. 0.10E+00    5.2     0.09608854       -74.9762529339  2.27E-03
   320 Broy./Diag. 0.10E+00    5.2     0.04453773       -74.9270601009  4.92E-02
   321 Broy./Diag. 0.10E+00    5.2     0.03759001       -74.8911060471  3.60E-02
   322 Broy./Diag. 0.10E+00    5.2     0.03850919       -74.8924273255 -1.32E-03
   323 Broy./Diag. 0.10E+00    5.2     0.03715819       -74.8896090022  2.82E-03
   324 Broy./Diag. 0.10E+00    5.2     0.04076034       -74.8894817028  1.27E-04
   325 Broy./Diag. 0.10E+00    5.2     0.05552873       -74.8910958836 -1.61E-03
   326 Broy./Diag. 0.10E+00    5.2     0.06562444       -74.8940246839 -2.93E-03
   327 Broy./Diag. 0.10E+00    5.2     0.07206989       -74.8992750774 -5.25E-03
   328 Broy./Diag. 0.10E+00    5.2     0.06549532       -74.8942316708  5.04E-03
   329 Broy./Diag. 0.10E+00    5.2     0.05112969       -74.8828911442  1.13E-02
   330 Broy./Diag. 0.10E+00    5.2     0.06088106       -74.8668722687  1.60E-02
   331 Broy./Diag. 0.10E+00    5.3     0.06245044       -74.8515323351  1.53E-02
   332 Broy./Diag. 0.10E+00    5.2     0.05631875       -74.8375903498  1.39E-02
   333 Broy./Diag. 0.10E+00    5.3     0.05587274       -74.8226993117  1.49E-02
   334 Broy./Diag. 0.10E+00    5.2     0.05235221       -74.8084976625  1.42E-02
   335 Broy./Diag. 0.10E+00    5.3     0.04076763       -74.7949103219  1.36E-02
   336 Broy./Diag. 0.10E+00    5.3     0.02738102       -74.7910564682  3.85E-03
   337 Broy./Diag. 0.10E+00    5.3     0.02926929       -74.7812500935  9.81E-03
   338 Broy./Diag. 0.10E+00    5.2     0.01694392       -74.7878868856 -6.64E-03
   339 Broy./Diag. 0.10E+00    5.2     0.03925403       -74.7989192937 -1.10E-02
   340 Broy./Diag. 0.10E+00    5.2     0.06551566       -74.7914994272  7.42E-03
   341 Broy./Diag. 0.10E+00    5.3     0.05677966       -74.8073862957 -1.59E-02
   342 Broy./Diag. 0.10E+00    5.2     0.05045912       -74.8473910525 -4.00E-02
   343 Broy./Diag. 0.10E+00    5.2     0.04907131       -74.8720719354 -2.47E-02
   344 Broy./Diag. 0.10E+00    5.2     0.04612374       -74.9095950757 -3.75E-02
   345 Broy./Diag. 0.10E+00    5.2     0.05526559       -74.9414124695 -3.18E-02
   346 Broy./Diag. 0.10E+00    5.2     0.14918531       -74.9593939779 -1.80E-02
   347 Broy./Diag. 0.10E+00    5.2     0.11916773       -74.8890708518  7.03E-02
   348 Broy./Diag. 0.10E+00    5.2     0.15286972       -74.8610145645  2.81E-02
   349 Broy./Diag. 0.10E+00    5.2     0.08793830       -74.8520552770  8.96E-03
   350 Broy./Diag. 0.10E+00    5.2     0.06100070       -74.8750797832 -2.30E-02
   351 Broy./Diag. 0.10E+00    5.2     0.04755579       -74.8679657727  7.11E-03
   352 Broy./Diag. 0.10E+00    5.3     0.05898438       -74.8541438323  1.38E-02
   353 Broy./Diag. 0.10E+00    5.2     0.05424179       -74.8567213717 -2.58E-03
   354 Broy./Diag. 0.10E+00    5.2     0.03880512       -74.8584261706 -1.70E-03
   355 Broy./Diag. 0.10E+00    5.2     0.04122606       -74.8724747449 -1.40E-02
   356 Broy./Diag. 0.10E+00    5.2     0.02434140       -74.8873462849 -1.49E-02
   357 Broy./Diag. 0.10E+00    5.2     0.06390714       -74.8950350759 -7.69E-03
   358 Broy./Diag. 0.10E+00    5.3     0.04164641       -74.9003818244 -5.35E-03
   359 Broy./Diag. 0.10E+00    5.2     0.05073361       -74.8905853552  9.80E-03
   360 Broy./Diag. 0.10E+00    5.4     0.05467739       -74.8777582916  1.28E-02
   361 Broy./Diag. 0.10E+00    5.3     0.05799299       -74.8664844555  1.13E-02
   362 Broy./Diag. 0.10E+00    5.3     0.05076103       -74.8654588563  1.03E-03
   363 Broy./Diag. 0.10E+00    5.3     0.04760030       -74.8650984876  3.60E-04
   364 Broy./Diag. 0.10E+00    5.3     0.06844214       -74.8336642576  3.14E-02
   365 Broy./Diag. 0.10E+00    5.2     0.06504605       -74.8264930904  7.17E-03
   366 Broy./Diag. 0.10E+00    5.3     0.05074171       -74.8533636772 -2.69E-02
   367 Broy./Diag. 0.10E+00    5.2     0.06706905       -74.8514093977  1.95E-03
   368 Broy./Diag. 0.10E+00    5.2     0.07677533       -74.8379932057  1.34E-02
   369 Broy./Diag. 0.10E+00    5.3     0.06505574       -74.8405612941 -2.57E-03
   370 Broy./Diag. 0.10E+00    5.3     0.04019460       -74.8475893309 -7.03E-03
   371 Broy./Diag. 0.10E+00    5.3     0.05903582       -74.8591132132 -1.15E-02
   372 Broy./Diag. 0.10E+00    5.2     0.08878969       -74.8706366414 -1.15E-02
   373 Broy./Diag. 0.10E+00    5.2     0.11271102       -74.8624746212  8.16E-03
   374 Broy./Diag. 0.10E+00    5.2     0.12344947       -74.8499393798  1.25E-02
   375 Broy./Diag. 0.10E+00    5.2     0.09058814       -74.8296335845  2.03E-02
   376 Broy./Diag. 0.10E+00    5.3     0.05554730       -74.8376380089 -8.00E-03
   377 Broy./Diag. 0.10E+00    5.3     0.07841956       -74.8797563831 -4.21E-02
   378 Broy./Diag. 0.10E+00    5.2     0.08282673       -74.8942803682 -1.45E-02
   379 Broy./Diag. 0.10E+00    5.2     0.06228127       -74.8922618415  2.02E-03
   380 Broy./Diag. 0.10E+00    5.2     0.03215005       -74.8964664528 -4.20E-03
   381 Broy./Diag. 0.10E+00    5.3     0.03271167       -74.8947193979  1.75E-03
   382 Broy./Diag. 0.10E+00    5.3     0.03071926       -74.8862219303  8.50E-03
   383 Broy./Diag. 0.10E+00    5.4     0.02647077       -74.8771488579  9.07E-03
   384 Broy./Diag. 0.10E+00    5.2     0.08592639       -74.8714917356  5.66E-03
   385 Broy./Diag. 0.10E+00    5.2     0.07806799       -74.8750768480 -3.59E-03
   386 Broy./Diag. 0.10E+00    5.3     0.09426047       -74.8572300232  1.78E-02
   387 Broy./Diag. 0.10E+00    5.3     0.07235590       -74.8127572691  4.45E-02
[...]
   418 Broy./Diag. 0.10E+00    5.2     0.10302125       -74.8010608963  7.41E-03
   419 Broy./Diag. 0.10E+00    5.2     0.07897556       -74.7952630469  5.80E-03
   420 Broy./Diag. 0.10E+00    5.4     0.08479908       -74.7713509564  2.39E-02
   421 Broy./Diag. 0.10E+00    5.3     0.05692089       -74.7628604216  8.49E-03
   422 Broy./Diag. 0.10E+00    5.2     0.05447430       -74.7494491555  1.34E-02
   423 Broy./Diag. 0.10E+00    5.2     0.08054633       -74.7506005440 -1.15E-03
   424 Broy./Diag. 0.10E+00    5.2     0.07430411       -74.7271385301  2.35E-02
   425 Broy./Diag. 0.10E+00    5.2     0.05269210       -74.6970610231  3.01E-02
   426 Broy./Diag. 0.10E+00    5.3     0.04463617       -74.6853957339  1.17E-02
   427 Broy./Diag. 0.10E+00    5.2     0.11178174       -74.6868456309 -1.45E-03
   428 Broy./Diag. 0.10E+00    5.2     0.11934861       -74.7613923396 -7.45E-02
   429 Broy./Diag. 0.10E+00    5.3     0.15897106       -74.8398332507 -7.84E-02
   430 Broy./Diag. 0.10E+00    5.2     0.15660356       -74.9348447569 -9.50E-02
   431 Broy./Diag. 0.10E+00    5.2     0.08944727       -74.9665979603 -3.18E-02
   432 Broy./Diag. 0.10E+00    5.2     0.06824825       -74.9335464777  3.31E-02
   433 Broy./Diag. 0.10E+00    5.3     0.12272243       -74.9369060520 -3.36E-03
   434 Broy./Diag. 0.10E+00    5.3     0.11215370       -74.7996063366  1.37E-01
   435 Broy./Diag. 0.10E+00    5.2     0.31631903       -74.6641416517  1.35E-01
   436 Broy./Diag. 0.10E+00    5.3     0.16476853       -74.7964596073 -1.32E-01
   437 Broy./Diag. 0.10E+00    5.2     0.21642079       -74.7854609237  1.10E-02
   438 Broy./Diag. 0.10E+00    5.2     0.07807687       -74.6883883056  9.71E-02
   439 Broy./Diag. 0.10E+00    5.2     0.11071263       -74.6379657309  5.04E-02
   440 Broy./Diag. 0.10E+00    5.3     0.05349923       -74.7106497642 -7.27E-02
   441 Broy./Diag. 0.10E+00    5.2     0.04575241       -74.7333444695 -2.27E-02
   442 Broy./Diag. 0.10E+00    5.2     0.08487380       -74.6966128445  3.67E-02
   443 Broy./Diag. 0.10E+00    5.2     0.04021904       -74.6213999346  7.52E-02
   444 Broy./Diag. 0.10E+00    5.2     0.03517286       -74.6089933679  1.24E-02
   445 Broy./Diag. 0.10E+00    5.2     0.33373106       -74.6150691696 -6.08E-03
   446 Broy./Diag. 0.10E+00    5.2     0.07758472       -74.7799695809 -1.65E-01
   447 Broy./Diag. 0.10E+00    5.3     0.19996895       -74.8472158422 -6.72E-02
   448 Broy./Diag. 0.10E+00    5.2     0.04309728       -74.8552631541 -8.05E-03
   449 Broy./Diag. 0.10E+00    5.2     0.15048265       -74.8511576260  4.11E-03
   450 Broy./Diag. 0.10E+00    5.2     0.07723661       -74.8979102659 -4.68E-02
   451 Broy./Diag. 0.10E+00    5.2     0.04986883       -74.8915466954  6.36E-03
   452 Broy./Diag. 0.10E+00    5.2     0.03054584       -74.8998700769 -8.32E-03
   453 Broy./Diag. 0.10E+00    5.2     0.03992803       -74.9020535277 -2.18E-03
   454 Broy./Diag. 0.10E+00    5.2     0.04612519       -74.8972899586  4.76E-03
   455 Broy./Diag. 0.10E+00    5.2     0.05709275       -74.9027898980 -5.50E-03
   456 Broy./Diag. 0.10E+00    5.2     0.06083559       -74.9011480708  1.64E-03
   457 Broy./Diag. 0.10E+00    5.2     0.06057734       -74.8951748864  5.97E-03
   458 Broy./Diag. 0.10E+00    5.2     0.06821401       -74.8918013240  3.37E-03
   459 Broy./Diag. 0.10E+00    5.2     0.07667261       -74.8807531332  1.10E-02
   460 Broy./Diag. 0.10E+00    5.2     0.07806389       -74.8666797822  1.41E-02
   461 Broy./Diag. 0.10E+00    5.3     0.07229712       -74.8571569791  9.52E-03
   462 Broy./Diag. 0.10E+00    5.2     0.07264695       -74.8543361524  2.82E-03
   463 Broy./Diag. 0.10E+00    5.2     0.06066684       -74.8285115563  2.58E-02
   464 Broy./Diag. 0.10E+00    5.2     0.04923745       -74.8182702634  1.02E-02
   465 Broy./Diag. 0.10E+00    5.2     0.08861832       -74.8208717294 -2.60E-03
   466 Broy./Diag. 0.10E+00    5.3     0.04902431       -74.8005482477  2.03E-02
   467 Broy./Diag. 0.10E+00    5.2     0.09126564       -74.7794567452  2.11E-02
   468 Broy./Diag. 0.10E+00    5.2     0.05593261       -74.7606909069  1.88E-02
   469 Broy./Diag. 0.10E+00    5.2     0.09885860       -74.7375691964  2.31E-02
   470 Broy./Diag. 0.10E+00    5.3     0.12671590       -74.8462427754 -1.09E-01
   471 Broy./Diag. 0.10E+00    5.3     0.04647692       -74.9294794041 -8.32E-02
   472 Broy./Diag. 0.10E+00    5.3     0.08147941       -74.7873310338  1.42E-01
   473 Broy./Diag. 0.10E+00    5.2     0.06608743       -74.7966554167 -9.32E-03
   474 Broy./Diag. 0.10E+00    5.2     0.12413774       -74.9151308297 -1.18E-01
   475 Broy./Diag. 0.10E+00    5.3     0.08657460       -75.0198617992 -1.05E-01
   476 Broy./Diag. 0.10E+00    5.2     0.06753307       -75.0465493700 -2.67E-02
   477 Broy./Diag. 0.10E+00    5.2     0.10648171       -75.0811855274 -3.46E-02
   478 Broy./Diag. 0.10E+00    5.2     0.14759400       -75.0600958115  2.11E-02
   479 Broy./Diag. 0.10E+00    5.2     0.11717088       -74.9912136067  6.89E-02
   480 Broy./Diag. 0.10E+00    5.3     0.13990366       -74.9662795637  2.49E-02
   481 Broy./Diag. 0.10E+00    5.3     0.09741827       -74.9674241819 -1.14E-03
   482 Broy./Diag. 0.10E+00    5.2     0.10441377       -74.9460266942  2.14E-02
   483 Broy./Diag. 0.10E+00    5.3     0.05931728       -74.9569905402 -1.10E-02
   484 Broy./Diag. 0.10E+00    5.2     0.07272836       -74.9446189737  1.24E-02
   485 Broy./Diag. 0.10E+00    5.2     0.11041075       -74.9446997126 -8.07E-05
   486 Broy./Diag. 0.10E+00    5.4     0.04995155       -75.0028951598 -5.82E-02
   487 Broy./Diag. 0.10E+00    5.2     0.14303633       -74.9970034725  5.89E-03
   488 Broy./Diag. 0.10E+00    5.3     0.08231308       -74.9939508908  3.05E-03
   489 Broy./Diag. 0.10E+00    5.4     0.03363153       -74.7910723598  2.03E-01
   490 Broy./Diag. 0.10E+00    5.2     0.03452349       -74.6878871700  1.03E-01
   491 Broy./Diag. 0.10E+00    5.2     0.05436025       -74.6803063538  7.58E-03
   492 Broy./Diag. 0.10E+00    5.2     0.04392479       -74.6479941356  3.23E-02
   493 Broy./Diag. 0.10E+00    5.2     0.06006514       -74.5414919104  1.07E-01
   494 Broy./Diag. 0.10E+00    5.2     0.04931303       -74.6549503147 -1.13E-01
   495 Broy./Diag. 0.10E+00    5.2     0.04184871       -74.6816581851 -2.67E-02
   496 Broy./Diag. 0.10E+00    5.2     0.05681400       -74.6614748909  2.02E-02
   497 Broy./Diag. 0.10E+00    5.3     0.14930606       -74.6123607013  4.91E-02
   498 Broy./Diag. 0.10E+00    5.3     0.15459486       -74.7115775108 -9.92E-02
   499 Broy./Diag. 0.10E+00    5.2     0.07524017       -74.8081234130 -9.65E-02
   500 Broy./Diag. 0.10E+00    5.2     0.08128604       -74.8193964526 -1.13E-02

  Leaving inner SCF loop after reaching   500 steps.


  Electronic density on regular grids:         -8.7741959127        3.2258040873
  Core density on regular grids:               12.0000000000        0.0000000000
  Hard and soft densities (Lebedev):          -23.4739211214      -20.2495533096
  Total Rho_soft + Rho1_hard - Rho1_soft      -11.9985637245
  Total charge density (r-space):               0.0014362755
  Total Rho_soft + Rho0_soft (g-space):         0.0014361856

  Overlap energy of the core charge distribution:               0.00003125550742
  Self energy of the core charge distribution:                -58.22549323810243
  Core Hamiltonian energy:                                    -14.22815861539915
  Hartree energy:                                              16.67904140251567
  Exchange-correlation energy:                                 -2.97042596991292
  Hartree-Fock Exchange energy:                                -2.54292343699942

  GAPW| Exc from hard and soft atomic rho1:                    -5.01323459903947
  GAPW| local Eh = 1 center integrals:                         -8.51823325121096

  Total energy:                                               -74.81939645264126

 *******************************************************************************
 *   ___                                                                       *
 *  /   \                                                                      *
 * [ABORT]                                                                     *
 *  \___/     SCF run NOT converged. To continue the calculation regardless,   *
 *    |             please set the keyword IGNORE_CONVERGENCE_FAILURE.         *
 *  O/|                                                                        *
 * /| |                                                                        *
 * / \                                                            qs_scf.F:611 *
 *******************************************************************************


 ===== Routine Calling Stack ===== 

            3 scf_env_do_scf
            2 qs_energies
            1 CP2K

 *******************************************************************************
 *   ___                                                                       *
 *  /   \                                                                      *
 * [ABORT]                                                                     *
 *  \___/     SCF run NOT converged. To continue the calculation regardless,   *
 *    |             please set the keyword IGNORE_CONVERGENCE_FAILURE.         *
 *  O/|                                                                        *
 * /| |                                                                        *
 * / \                                                            qs_scf.F:611 *
 *******************************************************************************


 ===== Routine Calling Stack ===== 

            3 scf_env_do_scf
            2 qs_energies
            1 CP2K

 *******************************************************************************
 *   ___                                                                       *
 *  /   \                                                                      *
 * [ABORT]                                                                     *
 *  \___/     SCF run NOT converged. To continue the calculation regardless,   *
 *    |             please set the keyword IGNORE_CONVERGENCE_FAILURE.         *
 *  O/|                                                                        *
 * /| |                                                                        *
 * / \                                                            qs_scf.F:611 *
 *******************************************************************************


 ===== Routine Calling Stack ===== 

            3 scf_env_do_scf
            2 qs_energies
            1 CP2K

 *******************************************************************************
 *   ___                                                                       *
 *  /   \                                                                      *
 * [ABORT]                                                                     *
 *  \___/     SCF run NOT converged. To continue the calculation regardless,   *
 *    |             please set the keyword IGNORE_CONVERGENCE_FAILURE.         *
 *  O/|                                                                        *
 * /| |                                                                        *
 * / \                                                            qs_scf.F:611 *
 *******************************************************************************


 ===== Routine Calling Stack ===== 

            3 scf_env_do_scf
            2 qs_energies
            1 CP2K

 *******************************************************************************
 *   ___                                                                       *
 *  /   \                                                                      *
 * [ABORT]                                                                     *
 *  \___/     SCF run NOT converged. To continue the calculation regardless,   *
 *    |             please set the keyword IGNORE_CONVERGENCE_FAILURE.         *
 *  O/|                                                                        *
 * /| |                                                                        *
 * / \                                                            qs_scf.F:611 *
 *******************************************************************************


 ===== Routine Calling Stack ===== 

            3 scf_env_do_scf
            2 qs_energies
            1 CP2K

 *******************************************************************************
 *   ___                                                                       *
 *  /   \                                                                      *
 * [ABORT]                                                                     *
 *  \___/     SCF run NOT converged. To continue the calculation regardless,   *
 *    |             please set the keyword IGNORE_CONVERGENCE_FAILURE.         *
 *  O/|                                                                        *
 * /| |                                                                        *
 * / \                                                            qs_scf.F:611 *
 *******************************************************************************


 ===== Routine Calling Stack ===== 

            3 scf_env_do_scf
            2 qs_energies
            1 CP2K

 *******************************************************************************
 *   ___                                                                       *
 *  /   \                                                                      *
 * [ABORT]                                                                     *
 *  \___/     SCF run NOT converged. To continue the calculation regardless,   *
 *    |             please set the keyword IGNORE_CONVERGENCE_FAILURE.         *
 *  O/|                                                                        *
 * /| |                                                                        *
 * / \                                                            qs_scf.F:611 *
 *******************************************************************************


 ===== Routine Calling Stack ===== 

            3 scf_env_do_scf
            2 qs_energies
            1 CP2K

 *******************************************************************************
 *   ___                                                                       *
 *  /   \                                                                      *
 * [ABORT]                                                                     *
 *  \___/     SCF run NOT converged. To continue the calculation regardless,   *
 *    |             please set the keyword IGNORE_CONVERGENCE_FAILURE.         *
 *  O/|                                                                        *
 * /| |                                                                        *
 * / \                                                            qs_scf.F:611 *
 *******************************************************************************


 ===== Routine Calling Stack ===== 

            3 scf_env_do_scf
            2 qs_energies
            1 CP2K

 *******************************************************************************
 *   ___                                                                       *
 *  /   \                                                                      *
 * [ABORT]                                                                     *
 *  \___/     SCF run NOT converged. To continue the calculation regardless,   *
 *    |             please set the keyword IGNORE_CONVERGENCE_FAILURE.         *
 *  O/|                                                                        *
 * /| |                                                                        *
 * / \                                                            qs_scf.F:611 *
 *******************************************************************************


 ===== Routine Calling Stack ===== 

            3 scf_env_do_scf
            2 qs_energies
            1 CP2K

 *******************************************************************************
 *   ___                                                                       *
 *  /   \                                                                      *
 * [ABORT]                                                                     *
 *  \___/     SCF run NOT converged. To continue the calculation regardless,   *
 *    |             please set the keyword IGNORE_CONVERGENCE_FAILURE.         *
 *  O/|                                                                        *
 * /| |                                                                        *
 * / \                                                            qs_scf.F:611 *
 *******************************************************************************


 ===== Routine Calling Stack ===== 

            3 scf_env_do_scf
            2 qs_energies
            1 CP2K

 *******************************************************************************
 *   ___                                                                       *
 *  /   \                                                                      *
 * [ABORT]                                                                     *
 *  \___/     SCF run NOT converged. To continue the calculation regardless,   *
 *    |             please set the keyword IGNORE_CONVERGENCE_FAILURE.         *
 *  O/|                                                                        *
 * /| |                                                                        *
 * / \                                                            qs_scf.F:611 *
 *******************************************************************************


 ===== Routine Calling Stack ===== 

            3 scf_env_do_scf
            2 qs_energies
            1 CP2K

 *******************************************************************************
 *   ___                                                                       *
 *  /   \                                                                      *
 * [ABORT]                                                                     *
 *  \___/     SCF run NOT converged. To continue the calculation regardless,   *
 *    |             please set the keyword IGNORE_CONVERGENCE_FAILURE.         *
 *  O/|                                                                        *
 * /| |                                                                        *
 * / \                                                            qs_scf.F:611 *
 *******************************************************************************


 ===== Routine Calling Stack ===== 

            3 scf_env_do_scf
            2 qs_energies
            1 CP2K

 *******************************************************************************
 *   ___                                                                       *
 *  /   \                                                                      *
 * [ABORT]                                                                     *
 *  \___/     SCF run NOT converged. To continue the calculation regardless,   *
 *    |             please set the keyword IGNORE_CONVERGENCE_FAILURE.         *
 *  O/|                                                                        *
 * /| |                                                                        *
 * / \                                                            qs_scf.F:611 *
 *******************************************************************************


 ===== Routine Calling Stack ===== 

            3 scf_env_do_scf
            2 qs_energies
            1 CP2K
