 DBCSR| CPU Multiplication driver                                           BLAS (U)
 DBCSR| Multrec recursion limit                                              512 (U)
 DBCSR| Multiplication stack size                                           1000 (D)
 DBCSR| Maximum elements for images                                    UNLIMITED (U)
 DBCSR| Multiplicative factor virtual images                                   1 (U)
 DBCSR| Use multiplication densification                                       T (D)
 DBCSR| Multiplication size stacks                                             3 (U)
 DBCSR| Use memory pool for CPU allocation                                     F (U)
 DBCSR| Number of 3D layers                                               SINGLE (U)
 DBCSR| Use MPI memory allocation                                              F (U)
 DBCSR| Use RMA algorithm                                                      F (U)
 DBCSR| Use Communication thread                                               T (U)
 DBCSR| Communication thread load                                             75 (D)
 DBCSR| MPI: My process id                                                     0
 DBCSR| MPI: Number of processes                                              24
 DBCSR| OMP: Current number of threads                                         4
 DBCSR| OMP: Max number of threads                                             4
 DBCSR| Split modifier for TAS multiplication algorithm                  1.0E+00 (U)


  **** **** ******  **  PROGRAM STARTED AT               2025-03-16 12:04:11.267
 ***** ** ***  *** **   PROGRAM STARTED ON                          i05r01c05s12
 **    ****   ******    PROGRAM STARTED BY                               di38fab
 ***** **    ** ** **   PROGRAM PROCESS ID                               4110458
  **** **  *******  **  PROGRAM STARTED IN /hppfs/scratch/04/di38fab/05_MOL/W4-1
                                           1+ALK/h2/SZV/GW+BSE/Np1

 CP2K| version string:                 CP2K version 2025.1 (Development Version)
 CP2K| source code revision number:                                  git:d2e611a
 CP2K| cp2kflags: omp libint fftw3 libxc parallel scalapack max_contr=4         
 CP2K| is freely available from                            https://www.cp2k.org/
 CP2K| Program compiled at                       Thu 06 Mar 2025 05:09:20 PM CET
 CP2K| Program compiled on                                               login02
 CP2K| Program compiled for                                        Supermuc-foss
 CP2K| Data directory path                  /hppfs/work/pn36zo/di38fab/cp2k/data
 CP2K| Input file name                                                    GW.inp

 GLOBAL| Force Environment number                                              1
 GLOBAL| Basis set file name            /hppfs/scratch/04/di38fab/04_TMD/BASIS_A
 GLOBAL| Potential file name            /hppfs/work/pn36zo/di38fab/cp2k/data/ALL
 GLOBAL| MM Potential file name                                     MM_POTENTIAL
 GLOBAL| Coordinate file name                                      __STD_INPUT__
 GLOBAL| Method name                                                        CP2K
 GLOBAL| Project name                                                       MoS2
 GLOBAL| Run type                                                         ENERGY
 GLOBAL| FFT library                                                       FFTW3
 GLOBAL| Diagonalization library                                       ScaLAPACK
 GLOBAL| DGEMM library                                                      BLAS
 GLOBAL| Orthonormality check for eigenvectors                          DISABLED
 GLOBAL| Matrix multiplication library                                 ScaLAPACK
 GLOBAL| All-to-all communication in single precision                          F
 GLOBAL| FFTs using library dependent lengths                                  F
 GLOBAL| Grid backend                                                       AUTO
 GLOBAL| Global print level                                               MEDIUM
 GLOBAL| MPI I/O enabled                                                       T
 GLOBAL| Total number of message passing processes                            24
 GLOBAL| Number of threads for this process                                    4
 GLOBAL| This output is from process                                           0
 GLOBAL| OpenMP stack size per thread (OMP_STACKSIZE)                    default
 GLOBAL| CPU model name             Intel(R) Xeon(R) Platinum 8174 CPU @ 3.10GHz

 MEMORY| system memory details [Kb]
 MEMORY|                        rank 0           min           max       average
 MEMORY| MemTotal             98436660      98436660      98436664      98436662
 MEMORY| MemFree              84789680      84012612      84789680      84401146
 MEMORY| Buffers                     0             0             0             0
 MEMORY| Cached                2388656       2388656       2402364       2395510
 MEMORY| Slab                  1109216       1109216       1229620       1169418
 MEMORY| SReclaimable           258680        258680        273528        266104
 MEMORY| MemLikelyFree        87437016      86688504      87437016      87062760


 *** Fundamental physical constants (SI units) ***

 *** Literature: B. J. Mohr and B. N. Taylor,
 ***             CODATA recommended values of the fundamental physical
 ***             constants: 2006, Web Version 5.1
 ***             http://physics.nist.gov/constants

 Speed of light in vacuum [m/s]                             2.99792458000000E+08
 Magnetic constant or permeability of vacuum [N/A**2]       1.25663706143592E-06
 Electric constant or permittivity of vacuum [F/m]          8.85418781762039E-12
 Planck constant (h) [J*s]                                  6.62606896000000E-34
 Planck constant (h-bar) [J*s]                              1.05457162825177E-34
 Elementary charge [C]                                      1.60217648700000E-19
 Electron mass [kg]                                         9.10938215000000E-31
 Electron g factor [ ]                                     -2.00231930436220E+00
 Proton mass [kg]                                           1.67262163700000E-27
 Fine-structure constant                                    7.29735253760000E-03
 Rydberg constant [1/m]                                     1.09737315685270E+07
 Avogadro constant [1/mol]                                  6.02214179000000E+23
 Boltzmann constant [J/K]                                   1.38065040000000E-23
 Atomic mass unit [kg]                                      1.66053878200000E-27
 Bohr radius [m]                                            5.29177208590000E-11

 *** Conversion factors ***

 [u] -> [a.u.]                                              1.82288848426455E+03
 [Angstrom] -> [Bohr] = [a.u.]                              1.88972613288564E+00
 [a.u.] = [Bohr] -> [Angstrom]                              5.29177208590000E-01
 [a.u.] -> [s]                                              2.41888432650478E-17
 [a.u.] -> [fs]                                             2.41888432650478E-02
 [a.u.] -> [J]                                              4.35974393937059E-18
 [a.u.] -> [N]                                              8.23872205491840E-08
 [a.u.] -> [K]                                              3.15774647902944E+05
 [a.u.] -> [kJ/mol]                                         2.62549961709828E+03
 [a.u.] -> [kcal/mol]                                       6.27509468713739E+02
 [a.u.] -> [Pa]                                             2.94210107994716E+13
 [a.u.] -> [bar]                                            2.94210107994716E+08
 [a.u.] -> [atm]                                            2.90362800883016E+08
 [a.u.] -> [eV]                                             2.72113838565563E+01
 [a.u.] -> [Hz]                                             6.57968392072181E+15
 [a.u.] -> [1/cm] (wave numbers)                            2.19474631370540E+05
 [a.u./Bohr**2] -> [1/cm]                                   5.14048714338585E+03
 

 CELL_TOP| Volume [angstrom^3]:                                     27000.000000
 CELL_TOP| Vector a [angstrom    30.000     0.000     0.000   |a| =    30.000000
 CELL_TOP| Vector b [angstrom     0.000    30.000     0.000   |b| =    30.000000
 CELL_TOP| Vector c [angstrom     0.000     0.000    30.000   |c| =    30.000000
 CELL_TOP| Angle (b,c), alpha [degree]:                                90.000000
 CELL_TOP| Angle (a,c), beta  [degree]:                                90.000000
 CELL_TOP| Angle (a,b), gamma [degree]:                                90.000000
 CELL_TOP| Numerically orthorhombic:                                         YES
 CELL_TOP| Periodicity                                                      NONE

 GENERATE|  Preliminary Number of Bonds generated:                             0
 GENERATE|  Achieved consistency in connectivity generation.

 CELL| Volume [angstrom^3]:                                         27000.000000
 CELL| Vector a [angstrom]:      30.000     0.000     0.000   |a| =    30.000000
 CELL| Vector b [angstrom]:       0.000    30.000     0.000   |b| =    30.000000
 CELL| Vector c [angstrom]:       0.000     0.000    30.000   |c| =    30.000000
 CELL| Angle (b,c), alpha [degree]:                                    90.000000
 CELL| Angle (a,c), beta  [degree]:                                    90.000000
 CELL| Angle (a,b), gamma [degree]:                                    90.000000
 CELL| Numerically orthorhombic:                                             YES
 CELL| Periodicity                                                          NONE

 CELL_REF| Volume [angstrom^3]:                                     27000.000000
 CELL_REF| Vector a [angstrom    30.000     0.000     0.000   |a| =    30.000000
 CELL_REF| Vector b [angstrom     0.000    30.000     0.000   |b| =    30.000000
 CELL_REF| Vector c [angstrom     0.000     0.000    30.000   |c| =    30.000000
 CELL_REF| Angle (b,c), alpha [degree]:                                90.000000
 CELL_REF| Angle (a,c), beta  [degree]:                                90.000000
 CELL_REF| Angle (a,b), gamma [degree]:                                90.000000
 CELL_REF| Numerically orthorhombic:                                         YES
 CELL_REF| Periodicity                                                      NONE

 *******************************************************************************
 *******************************************************************************
 **                                                                           **
 **     #####                         ##              ##                      **
 **    ##   ##            ##          ##              ##                      **
 **   ##     ##                       ##            ######                    **
 **   ##     ##  ##   ##  ##   #####  ##  ##   ####   ##    #####    #####    **
 **   ##     ##  ##   ##  ##  ##      ## ##   ##      ##   ##   ##  ##   ##   **
 **   ##  ## ##  ##   ##  ##  ##      ####     ###    ##   ######   ######    **
 **    ##  ###   ##   ##  ##  ##      ## ##      ##   ##   ##       ##        **
 **     #######   #####   ##   #####  ##  ##  ####    ##    #####   ##        **
 **           ##                                                    ##        **
 **                                                                           **
 **                                                ... make the atoms dance   **
 **                                                                           **
 **            Copyright (C) by CP2K developers group (2000-2025)             **
 **                      J. Chem. Phys. 152, 194103 (2020)                    **
 **                                                                           **
 *******************************************************************************

 DFT| Spin restricted Kohn-Sham (RKS) calculation                            RKS
 DFT| Multiplicity                                                             1
 DFT| Number of spin states                                                    1
 DFT| Charge                                                                   0
 DFT| Self-interaction correction (SIC)                                       NO
 DFT| Cutoffs: density                                              1.000000E-10
 DFT|          gradient                                             1.000000E-10
 DFT|          tau                                                  1.000000E-10
 DFT|          cutoff_smoothing_range                               0.000000E+00
 DFT| XC density smoothing                                                  NONE
 DFT| XC derivatives                                                          PW

 FUNCTIONAL| PBE:
 FUNCTIONAL| J.P.Perdew, K.Burke, M.Ernzerhof, Phys. Rev. Letter, vol. 77, n 18,
 FUNCTIONAL|  pp. 3865-3868, (1996)sx=0.750sc=1.000{spin unpolarized}           


 QS| Method:                                                                GAPW
 QS| Density plane wave grid type                        NON-SPHERICAL FULLSPACE
 QS| Number of grid levels:                                                    4
 QS| Density cutoff [a.u.]:                                                250.0
 QS| Multi grid cutoff [a.u.]: 1) grid level                               250.0
 QS|                           2) grid level                                83.3
 QS|                           3) grid level                                27.8
 QS|                           4) grid level                                 9.3
 QS| Grid level progression factor:                                          3.0
 QS| Relative density cutoff [a.u.]:                                        50.0
 QS| Interaction thresholds: eps_pgf_orb:                                1.0E-12
 QS|                         eps_filter_matrix:                          0.0E+00
 QS|                         eps_core_charge:                            1.0E-14
 QS|                         eps_rho_gspace:                             1.0E-12
 QS|                         eps_rho_rspace:                             1.0E-12
 QS|                         eps_gvg_rspace:                             1.0E-06
 QS|                         eps_ppl:                                    1.0E-02
 QS|                         eps_ppnl:                                   1.0E-08
 QS| GAPW|      One center basis from orbital basis primitives
 QS| GAPW|                   eps_fit:                                    1.0E-04
 QS| GAPW|                   eps_iso:                                    1.0E-12
 QS| GAPW|                   eps_svd:                                    1.0E-08
 QS| GAPW|                   eps_cpc:                                    1.0E-12
 QS| GAPW|   atom-r-grid: quadrature:                                     GC_LOG
 QS| GAPW|      atom-s-grid:  max l :                                          2
 QS| GAPW|      max_l_rho0 :                                                   2


 ATOMIC KIND INFORMATION

  1. Atomic kind: H                                     Number of atoms:       2

     Orbital Basis Set                                         aug-SZV-MOLOPT-ae

       Number of orbital shell sets:                                           1
       Number of orbital shells:                                               4
       Number of primitive Cartesian functions:                                7
       Number of Cartesian basis functions:                                    6
       Number of spherical basis functions:                                    6
       Norm type:                                                              2

       Normalised Cartesian orbitals:

                        Set   Shell   Orbital            Exponent    Coefficient

                          1       1    1s                0.065428       0.000000
                                                         0.100112       0.016532
                                                         0.243077       0.102760
                                                         0.625955       0.185857
                                                         1.822143       0.188385
                                                         6.513144       0.143430
                                                        35.523221       0.095030

                          1       2    2s                0.065428       0.083549
                                                         0.100112       0.009605
                                                         0.243077       0.002524
                                                         0.625955       0.013457
                                                         1.822143       0.000000
                                                         6.513144       0.000000
                                                        35.523221       0.000000

                          1       3    3s                0.065428       0.037407
                                                         0.100112      -0.169070
                                                         0.243077      -0.018899
                                                         0.625955       0.012806
                                                         1.822143       0.000000
                                                         6.513144       0.000000
                                                        35.523221       0.000000

                          1       4    2px               0.065428       0.059908
                                                         0.100112      -0.023770
                                                         0.243077       0.000032
                                                         0.625955       0.017779
                                                         1.822143       0.000000
                                                         6.513144       0.000000
                                                        35.523221       0.000000
                          1       4    2py               0.065428       0.059908
                                                         0.100112      -0.023770
                                                         0.243077       0.000032
                                                         0.625955       0.017779
                                                         1.822143       0.000000
                                                         6.513144       0.000000
                                                        35.523221       0.000000
                          1       4    2pz               0.065428       0.059908
                                                         0.100112      -0.023770
                                                         0.243077       0.000032
                                                         0.625955       0.017779
                                                         1.822143       0.000000
                                                         6.513144       0.000000
                                                        35.523221       0.000000

     RI Auxiliary Basis Set             RI_aug-SZV-MOLOPT-ae_N_RI_007_s_p_d_f_g_

       Number of orbital shell sets:                                           5
       Number of orbital shells:                                               5
       Number of primitive Cartesian functions:                                5
       Number of Cartesian basis functions:                                    7
       Number of spherical basis functions:                                    7
       Norm type:                                                              2

       Normalised Cartesian orbitals:

                        Set   Shell   Orbital            Exponent    Coefficient

                          1       1    1s                0.148777       0.170731

                          2       1    5px               0.367452       0.407794
                          2       1    5py               0.367452       0.407794
                          2       1    5pz               0.367452       0.407794

                          3       1    2s                0.510503       0.430437

                          4       1    3s                1.106366       0.768837

                          5       1    4s                5.955292       2.716986

       Atomic covalent radius [Angstrom]:                                  0.320

       Atomic van der Waals radius [Angstrom]:                             1.090

     The atoms of this atomic kind are PAW atoms (GAPW):
       Hard Gaussian function radius:                                      1.200
       Rho0 radius:                                                        1.200
       Maximum GTO radius used for PAW projector construction:            24.566

     GAPW Soft Basis Set                                  aug-SZV-MOLOPT-ae_soft

       Number of orbital shell sets:                                           1
       Number of orbital shells:                                               4
       Number of primitive Cartesian functions:                                6
       Number of Cartesian basis functions:                                    6
       Number of spherical basis functions:                                    6
       Norm type:                                                              2

       Normalised Cartesian orbitals:

                        Set   Shell   Orbital            Exponent    Coefficient

                          1       1    1s                0.065428       0.000000
                                                         0.100112       0.016532
                                                         0.243077       0.102760
                                                         0.625955       0.185857
                                                         1.822143       0.188385
                                                         6.513144       0.000000

                          1       2    2s                0.065428       0.083549
                                                         0.100112       0.009605
                                                         0.243077       0.002524
                                                         0.625955       0.013457
                                                         1.822143       0.000000
                                                         6.513144       0.000000

                          1       3    3s                0.065428       0.037407
                                                         0.100112      -0.169070
                                                         0.243077      -0.018899
                                                         0.625955       0.012806
                                                         1.822143       0.000000
                                                         6.513144       0.000000

                          1       4    2px               0.065428       0.059908
                                                         0.100112      -0.023770
                                                         0.243077       0.000032
                                                         0.625955       0.017779
                                                         1.822143       0.000000
                                                         6.513144       0.000000
                          1       4    2py               0.065428       0.059908
                                                         0.100112      -0.023770
                                                         0.243077       0.000032
                                                         0.625955       0.017779
                                                         1.822143       0.000000
                                                         6.513144       0.000000
                          1       4    2pz               0.065428       0.059908
                                                         0.100112      -0.023770
                                                         0.243077       0.000032
                                                         0.625955       0.017779
                                                         1.822143       0.000000
                                                         6.513144       0.000000

     AE Potential information for                                            ALL

       Description:                                       All-electron potential
                                          Krack, Parrinello, PCCP 2, 2105 (2000)

       Gaussian exponent of the core charge distribution:              12.500000
       Electronic configuration (s p d ...):                           1   0   0


 MOLECULE KIND INFORMATION


 All atoms are their own molecule, skipping detailed information


 TOTAL NUMBERS AND MAXIMUM NUMBERS

  Total number of            - Atomic kinds:                                   1
                             - Atoms:                                          2
                             - Shell sets:                                     2
                             - Shells:                                         8
                             - Primitive Cartesian functions:                 14
                             - Cartesian basis functions:                     12
                             - Spherical basis functions:                     12

  Maximum angular momentum of the orbital basis functions:                     1


 MODULE QUICKSTEP: ATOMIC COORDINATES IN ANGSTROM

   Atom Kind Element         X             Y             Z       Z(eff)     Mass
      1    1 H     1     15.370946     15.000000     15.000000   1.0000   1.0079
      2    1 H     1     14.629054     15.000000     15.000000   1.0000   1.0079



 SCF PARAMETERS         Density guess:                                    ATOMIC
                        --------------------------------------------------------
                        max_scf:                                             500
                        max_scf_history:                                       0
                        max_diis:                                              4
                        --------------------------------------------------------
                        eps_scf:                                        1.00E-06
                        eps_scf_history:                                0.00E+00
                        eps_diis:                                       1.00E-01
                        eps_eigval:                                     1.00E-05
                        --------------------------------------------------------
                        level_shift [a.u.]:                             0.000000
                        added MOs                                        11    0
                        --------------------------------------------------------
                        Mixing method:                            BROYDEN_MIXING
                                                charge density mixing in g-space
                        --------------------------------------------------------
                        No outer SCF

 PW_GRID| Information for grid number                                          1
 PW_GRID| Grid distributed over                                    24 processors
 PW_GRID| Real space group dimensions                                    24    1
 PW_GRID| the grid is blocked:                                                NO
 PW_GRID| Cutoff [a.u.]                                                    250.0
 PW_GRID| spherical cutoff:                                                   NO
 PW_GRID|   Bounds   1           -202     202                Points:         405
 PW_GRID|   Bounds   2           -202     202                Points:         405
 PW_GRID|   Bounds   3           -202     202                Points:         405
 PW_GRID| Volume element (a.u.^3)  0.2743E-02     Volume (a.u.^3)    182205.0337
 PW_GRID| Grid span                                                    FULLSPACE
 PW_GRID|   Distribution                         Average         Max         Min
 PW_GRID|   G-Vectors                          2767921.9     2768175     2767770
 PW_GRID|   G-Rays                                6834.4        6835        6834
 PW_GRID|   Real Space Points                  2767921.9     2788425     2624400

 PW_GRID| Information for grid number                                          2
 PW_GRID| Number of the reference grid                                         1
 PW_GRID| Grid distributed over                                    24 processors
 PW_GRID| Real space group dimensions                                    24    1
 PW_GRID| the grid is blocked:                                                NO
 PW_GRID| Cutoff [a.u.]                                                     83.3
 PW_GRID| spherical cutoff:                                                   NO
 PW_GRID|   Bounds   1           -120     119                Points:         240
 PW_GRID|   Bounds   2           -120     119                Points:         240
 PW_GRID|   Bounds   3           -120     119                Points:         240
 PW_GRID| Volume element (a.u.^3)  0.1318E-01     Volume (a.u.^3)    182205.0337
 PW_GRID| Grid span                                                    FULLSPACE
 PW_GRID|   Distribution                         Average         Max         Min
 PW_GRID|   G-Vectors                           576000.0      576240      575760
 PW_GRID|   G-Rays                                2400.0        2401        2399
 PW_GRID|   Real Space Points                   576000.0      576000      576000

 PW_GRID| Information for grid number                                          3
 PW_GRID| Number of the reference grid                                         1
 PW_GRID| Grid distributed over                                    24 processors
 PW_GRID| Real space group dimensions                                    24    1
 PW_GRID| the grid is blocked:                                                NO
 PW_GRID| Cutoff [a.u.]                                                     27.8
 PW_GRID| spherical cutoff:                                                   NO
 PW_GRID|   Bounds   1            -67      67                Points:         135
 PW_GRID|   Bounds   2            -67      67                Points:         135
 PW_GRID|   Bounds   3            -67      67                Points:         135
 PW_GRID| Volume element (a.u.^3)  0.7406E-01     Volume (a.u.^3)    182205.0337
 PW_GRID| Grid span                                                    FULLSPACE
 PW_GRID|   Distribution                         Average         Max         Min
 PW_GRID|   G-Vectors                           102515.6      102735      102330
 PW_GRID|   G-Rays                                 759.4         761         758
 PW_GRID|   Real Space Points                   102515.6      109350       91125

 PW_GRID| Information for grid number                                          4
 PW_GRID| Number of the reference grid                                         1
 PW_GRID| Grid distributed over                                    24 processors
 PW_GRID| Real space group dimensions                                    24    1
 PW_GRID| the grid is blocked:                                                NO
 PW_GRID| Cutoff [a.u.]                                                      9.3
 PW_GRID| spherical cutoff:                                                   NO
 PW_GRID|   Bounds   1            -40      39                Points:          80
 PW_GRID|   Bounds   2            -40      39                Points:          80
 PW_GRID|   Bounds   3            -40      39                Points:          80
 PW_GRID| Volume element (a.u.^3)  0.3559         Volume (a.u.^3)    182205.0337
 PW_GRID| Grid span                                                    FULLSPACE
 PW_GRID|   Distribution                         Average         Max         Min
 PW_GRID|   G-Vectors                            21333.3       21360       21280
 PW_GRID|   G-Rays                                 266.7         267         266
 PW_GRID|   Real Space Points                    21333.3       25600       19200

 POISSON| Solver                                                         WAVELET
 POISSON| Wavelet| Scaling function                                           40
 POISSON| Periodicity                                                       NONE

 RS_GRID| Information for grid number                                          1
 RS_GRID|   Bounds   1           -202     202                Points:         405
 RS_GRID|   Bounds   2           -202     202                Points:         405
 RS_GRID|   Bounds   3           -202     202                Points:         405
 RS_GRID| Real space distribution over                                  4 groups
 RS_GRID| Real space distribution along direction                              2
 RS_GRID| Border size                                                         32
 RS_GRID| Real space distribution over                                  6 groups
 RS_GRID| Real space distribution along direction                              3
 RS_GRID| Border size                                                         32
 RS_GRID|   Distribution                         Average         Max         Min
 RS_GRID|   Planes                                 165.2         166         165
 RS_GRID|   Distribution                         Average         Max         Min
 RS_GRID|   Planes                                 131.5         132         131

 RS_GRID| Information for grid number                                          2
 RS_GRID|   Bounds   1           -120     119                Points:         240
 RS_GRID|   Bounds   2           -120     119                Points:         240
 RS_GRID|   Bounds   3           -120     119                Points:         240
 RS_GRID| Real space distribution over                                  4 groups
 RS_GRID| Real space distribution along direction                              2
 RS_GRID| Border size                                                         32
 RS_GRID| Real space distribution over                                  6 groups
 RS_GRID| Real space distribution along direction                              3
 RS_GRID| Border size                                                         32
 RS_GRID|   Distribution                         Average         Max         Min
 RS_GRID|   Planes                                 124.0         124         124
 RS_GRID|   Distribution                         Average         Max         Min
 RS_GRID|   Planes                                 104.0         104         104

 RS_GRID| Information for grid number                                          3
 RS_GRID|   Bounds   1            -67      67                Points:         135
 RS_GRID|   Bounds   2            -67      67                Points:         135
 RS_GRID|   Bounds   3            -67      67                Points:         135
 RS_GRID| Real space fully replicated
 RS_GRID| Group size                                                           1

 RS_GRID| Information for grid number                                          4
 RS_GRID|   Bounds   1            -40      39                Points:          80
 RS_GRID|   Bounds   2            -40      39                Points:          80
 RS_GRID|   Bounds   3            -40      39                Points:          80
 RS_GRID| Real space fully replicated
 RS_GRID| Group size                                                           1

  HFX_INFO| Replica ID:                                                        1
  HFX_INFO| FRACTION:                                               0.2500000000
  HFX_INFO| Interaction Potential:                                       COULOMB
  HFX_INFO| EPS_SCHWARZ:                                                 1.0E-10
  HFX_INFO| EPS_SCHWARZ_FORCES                                           1.0E-08
  HFX_INFO| EPS_STORAGE_SCALING:                                         1.0E+00
  HFX_INFO| NBINS:                                                            64
  HFX_INFO| BLOCK_SIZE:                                                        1
  HFX_INFO| Number of periodic shells considered:                           NONE
  HFX_INFO| Number of periodic cells considered:                            NONE

 
 RI-RPA| using GPW style
 

 OVERLAP MATRIX CONDITION NUMBER
 1-Norm Condition Number (Estimate)
   CN : |A|*|A^-1|:  5.560E+000 *  5.290E+004   = 2.942E+005  Log(1-CN):  5.4686
 1-Norm and 2-Norm Condition Numbers using Diagonalization
   CN : |A|*|A^-1|:  5.560E+000 *  5.290E+004   = 2.942E+005  Log(1-CN):  5.4686
   CN : max/min ev:  4.964E+000 /  2.443E-005   = 2.032E+005  Log(2-CN):  5.3080

 Number of electrons:                                                          2
 Number of occupied orbitals:                                                  1
 Number of molecular orbitals:                                                12

 Number of orbital functions:                                                 12
 Number of independent orbital functions:                                     12

 Extrapolation method: initial_guess

 Atomic guess: The first density matrix is obtained in terms of atomic orbitals
               and electronic configurations assigned to each atomic kind

 Guess for atomic kind: H

 Electronic structure
    Total number of core electrons                                          0.00
    Total number of valence electrons                                       1.00
    Total number of electrons                                               1.00
    Multiplicity                                                   not specified
    S      1.00


 *******************************************************************************
                  Iteration          Convergence                     Energy [au]
 *******************************************************************************
                          1        0.962691E-02                  -0.444368661081
                          2        0.109107E-02                  -0.444473520424
                          3        0.117094E-03                  -0.444476577889
                          4        0.851579E-07                  -0.444476596085

 Energy components [Hartree]           Total Energy ::           -0.444476596085
                                        Band Energy ::           -0.233451424826
                                     Kinetic Energy ::            0.431260327433
                                   Potential Energy ::           -0.875736923518
                                      Virial (-V/T) ::            2.030645686170
                                        Core Energy ::           -0.494218917327
                                          XC Energy ::           -0.231476335377
                                     Coulomb Energy ::            0.281218656618

 Orbital energies  State     L     Occupation   Energy[a.u.]          Energy[eV]

                       1     0          1.000      -0.233451           -6.352536


 Total Electron Density at R=0:                                         0.270947
 Re-scaling the density matrix to get the right number of electrons
                  # Electrons              Trace(P)               Scaling factor
                            2                 2.000                        1.000


 SCF WAVEFUNCTION OPTIMIZATION

  Step     Update method      Time    Convergence         Total energy    Change
  ------------------------------------------------------------------------------

  HFX_MEM_INFO| Est. max. program size before HFX [MiB]:                    2109
  HFX_MEM_INFO| Number of cart. primitive ERI's calculated:              3636992
  HFX_MEM_INFO| Number of sph. ERI's calculated:                            7776
  HFX_MEM_INFO| Number of sph. ERI's stored in-core:                        7776
  HFX_MEM_INFO| Number of sph. ERI's stored on disk:                           0
  HFX_MEM_INFO| Number of sph. ERI's calculated on the fly:                    0
  HFX_MEM_INFO| Total memory consumption ERI's RAM [MiB]:                      1
  HFX_MEM_INFO| Whereof max-vals [MiB]:                                        1
  HFX_MEM_INFO| Total compression factor ERI's RAM:                         0.08
  HFX_MEM_INFO| Total memory consumption ERI's disk [MiB]:                     0
  HFX_MEM_INFO| Total compression factor ERI's disk:                        0.00
  HFX_MEM_INFO| Size of density/Fock matrix [MiB]:                             0
  HFX_MEM_INFO| Size of buffers [MiB]:                                         0
  HFX_MEM_INFO| Est. max. program size after HFX  [MiB]:                    2591

     1 NoMix/Diag. 0.10E+00    6.0     0.60520531        -0.9389869978 -9.39E-01
     2 Broy./Diag. 0.10E+00    4.6     0.05432299        -0.8137958013  1.25E-01
     3 Broy./Diag. 0.10E+00    4.9     0.06567996        -0.3978613077  4.16E-01
     4 Broy./Diag. 0.10E+00    4.7     0.05481608        -0.7348102057 -3.37E-01
     5 Broy./Diag. 0.10E+00    4.7     0.01978769        -0.8319705321 -9.72E-02
     6 Broy./Diag. 0.10E+00    4.8     0.01498057        -0.8906946293 -5.87E-02
     7 Broy./Diag. 0.10E+00    5.0     0.04337083        -1.0297082512 -1.39E-01
     8 Broy./Diag. 0.10E+00    5.1     0.01377314        -1.0887000850 -5.90E-02
     9 Broy./Diag. 0.10E+00    5.1     0.00471579        -1.1077595854 -1.91E-02
    10 Broy./Diag. 0.10E+00    5.3     0.01025606        -1.1351591458 -2.74E-02
    11 Broy./Diag. 0.10E+00    5.2     0.00516164        -1.1560127923 -2.09E-02
    12 Broy./Diag. 0.10E+00    5.2     0.00106076        -1.1599545980 -3.94E-03
    13 Broy./Diag. 0.10E+00    5.3     0.00247037        -1.1600702054 -1.16E-04
    14 Broy./Diag. 0.10E+00    5.3     0.00142964        -1.1645603608 -4.49E-03
    15 Broy./Diag. 0.10E+00    5.2     0.00072366        -1.1642007095  3.60E-04
    16 Broy./Diag. 0.10E+00    5.2     0.00193627        -1.1599609666  4.24E-03
    17 Broy./Diag. 0.10E+00    5.3     0.00153167        -1.1631217611 -3.16E-03
    18 Broy./Diag. 0.10E+00    5.2     0.00052856        -1.1652423758 -2.12E-03
    19 Broy./Diag. 0.10E+00    5.3     0.00110124        -1.1640669383  1.18E-03
    20 Broy./Diag. 0.10E+00    5.2     0.00113827        -1.1638576408  2.09E-04
    21 Broy./Diag. 0.10E+00    5.3     0.00033442        -1.1649506266 -1.09E-03
    22 Broy./Diag. 0.10E+00    5.2     0.00008371        -1.1651149675 -1.64E-04
    23 Broy./Diag. 0.10E+00    5.2     0.00047454        -1.1646744460  4.41E-04
    24 Broy./Diag. 0.10E+00    5.2     0.00021037        -1.1650947871 -4.20E-04
    25 Broy./Diag. 0.10E+00    5.3     0.00006217        -1.1651382027 -4.34E-05
    26 Broy./Diag. 0.10E+00    5.2     0.00004946        -1.1649171276  2.21E-04
    27 Broy./Diag. 0.10E+00    5.3     0.00010672        -1.1651388149 -2.22E-04
    28 Broy./Diag. 0.10E+00    5.2     0.00003184        -1.1651742976 -3.55E-05
    29 Broy./Diag. 0.10E+00    5.2     0.00004569        -1.1651631187  1.12E-05
    30 Broy./Diag. 0.10E+00    5.3     0.00004952        -1.1652627694 -9.97E-05
    31 Broy./Diag. 0.10E+00    5.3     0.00006986        -1.1651706775  9.21E-05
    32 Broy./Diag. 0.10E+00    5.3     0.00005975        -1.1651476545  2.30E-05
    33 Broy./Diag. 0.10E+00    5.4     0.00004599        -1.1651772774 -2.96E-05
    34 Broy./Diag. 0.10E+00    5.2     0.00002785        -1.1650985615  7.87E-05
    35 Broy./Diag. 0.10E+00    5.2     0.00005766        -1.1651004786 -1.92E-06
    36 Broy./Diag. 0.10E+00    5.2     0.00001260        -1.1651076322 -7.15E-06
    37 Broy./Diag. 0.10E+00    5.2     0.00001788        -1.1650920429  1.56E-05
    38 Broy./Diag. 0.10E+00    5.3     0.00000423        -1.1650810244  1.10E-05
    39 Broy./Diag. 0.10E+00    5.3     0.00001242        -1.1650772047  3.82E-06
    40 Broy./Diag. 0.10E+00    5.3     0.00000295        -1.1650747253  2.48E-06
    41 Broy./Diag. 0.10E+00    5.3     0.00001875        -1.1650825665 -7.84E-06
    42 Broy./Diag. 0.10E+00    5.3     0.00000414        -1.1650903688 -7.80E-06
    43 Broy./Diag. 0.10E+00    5.3     0.00000117        -1.1650900654  3.03E-07
    44 Broy./Diag. 0.10E+00    5.3     0.00000630        -1.1651028078 -1.27E-05
    45 Broy./Diag. 0.10E+00    5.2     0.00000054        -1.1651041396 -1.33E-06

  *** SCF run converged in    45 steps ***


  Electronic density on regular grids:         -1.9345524331        0.0654475669
  Core density on regular grids:                2.0000000000       -0.0000000000
  Hard and soft densities (Lebedev):           -7.9293966829       -7.8639579788
  Total Rho_soft + Rho1_hard - Rho1_soft       -1.9999911373
  Total charge density (r-space):               0.0000088627
  Total Rho_soft + Rho0_soft (g-space):         0.0000088566

  Overlap energy of the core charge distribution:               0.00000051136925
  Self energy of the core charge distribution:                 -2.82094791773878
  Core Hamiltonian energy:                                      0.97735334688048
  Hartree energy:                                               1.08261959759309
  Exchange-correlation energy:                                 -0.49307531753631
  Hartree-Fock Exchange energy:                                -0.16304717411715

  GAPW| Exc from hard and soft atomic rho1:                    -0.03324536455646
  GAPW| local Eh = 1 center integrals:                          0.28523817854649

  Total energy:                                                -1.16510413955940

 !-----------------------------------------------------------------------------!
                     Mulliken Population Analysis

 #  Atom  Element  Kind  Atomic population                           Net charge
       1     H        1          1.000000                              0.000000
       2     H        1          1.000000                             -0.000000
 # Total charge                              2.000000                  0.000000

 !-----------------------------------------------------------------------------!

 !-----------------------------------------------------------------------------!
                           Hirshfeld Charges

  #Atom  Element  Kind  Ref Charge     Population                    Net charge
      1       H      1       1.000          0.934                         0.066
      2       H      1       1.000          0.934                         0.066

  Total Charge                                                            0.132
 !-----------------------------------------------------------------------------!


 RI-RPA section
 --------------

  Used number of processes per group:                                          1
  Maximum allowed memory usage per MPI process:                      1024.00 MiB

 *******************************************************************************
 *   ___                                                                       *
 *  /   \                                                                      *
 * [ABORT]                                                                     *
 *  \___/   Product of block size and number of RI functions should not exceed *
 *    |                          total number of processes                     *
 *  O/|                                                                        *
 * /| |                                                                        *
 * / \                                                         mp2_ri_2c.F:892 *
 *******************************************************************************


 ===== Routine Calling Stack ===== 

            7 compute_2c_integrals
            6 get_2c_integrals
            5 mp2_ri_gpw_compute_in
            4 mp2_gpw_main
            3 mp2_main
            2 qs_energies
            1 CP2K

 *******************************************************************************
 *   ___                                                                       *
 *  /   \                                                                      *
 * [ABORT]                                                                     *
 *  \___/   Product of block size and number of RI functions should not exceed *
 *    |                          total number of processes                     *
 *  O/|                                                                        *
 * /| |                                                                        *
 * / \                                                         mp2_ri_2c.F:892 *
 *******************************************************************************


 ===== Routine Calling Stack ===== 

            7 compute_2c_integrals
            6 get_2c_integrals
            5 mp2_ri_gpw_compute_in
            4 mp2_gpw_main
            3 mp2_main
            2 qs_energies
            1 CP2K

 *******************************************************************************
 *   ___                                                                       *
 *  /   \                                                                      *
 * [ABORT]                                                                     *
 *  \___/   Product of block size and number of RI functions should not exceed *
 *    |                          total number of processes                     *
 *  O/|                                                                        *
 * /| |                                                                        *
 * / \                                                         mp2_ri_2c.F:892 *
 *******************************************************************************


 ===== Routine Calling Stack ===== 

            7 compute_2c_integrals
            6 get_2c_integrals
            5 mp2_ri_gpw_compute_in
            4 mp2_gpw_main
            3 mp2_main
            2 qs_energies
            1 CP2K

 *******************************************************************************
 *   ___                                                                       *
 *  /   \                                                                      *
 * [ABORT]                                                                     *
 *  \___/   Product of block size and number of RI functions should not exceed *
 *    |                          total number of processes                     *
 *  O/|                                                                        *
 * /| |                                                                        *
 * / \                                                         mp2_ri_2c.F:892 *
 *******************************************************************************


 ===== Routine Calling Stack ===== 

            7 compute_2c_integrals
            6 get_2c_integrals
            5 mp2_ri_gpw_compute_in
            4 mp2_gpw_main
            3 mp2_main
            2 qs_energies
            1 CP2K

 *******************************************************************************
 *   ___                                                                       *
 *  /   \                                                                      *
 * [ABORT]                                                                     *
 *  \___/   Product of block size and number of RI functions should not exceed *
 *    |                          total number of processes                     *
 *  O/|                                                                        *
 * /| |    
 *******************************************************************************
 *   ___                                                                       *
 *  /   \                                                                      *
 * [ABORT]                                                                     *
 *  \___/   Product of block size and number of RI functions should not exceed *
 *    |                          total number of processes                     *
 *  O/|                                                                        *
 * /| |                                                                        *
 * / \                                                         mp2_ri_2c.F:892 *
 *******************************************************************************


 ===== Routine Calling Stack ===== 

            7 compute_2c_integrals
            6 get_2c_integrals
            5 mp2_ri_gpw_compute_in
            4 mp2_gpw_main
            3 mp2_main
            2 qs_energies
            1 CP2K

 *******************************************************************************
 *   ___                                                                       *
 *  /   \                                                                      *
 * [ABORT]                                                                     *
 *  \___/   Product of block size and number of RI functions should not exceed *
 *    |                          total number of processes                     *
 *  O/|                                                                        *
 * /| |                                                                        *
 * / \                                                         mp2_ri_2c.F:892 *
 *******************************************************************************


 ===== Routine Calling Stack ===== 

            7 compute_2c_integrals
            6 get_2c_integrals
            5 mp2_ri_gpw_compute_in
            4 mp2_gpw_main
            3 mp2_main
            2 qs_energies
            1 CP2K

 *******************************************************************************
 *   ___                                                                       *
 *  /   \                                                                      *
 * [ABORT]                                                                     *
 *  \___/   Product of block size and number of RI functions should not exceed *
 *    |                          total number of processes                     *
 *  O/|                                                                        *
 * /| |                                                                        *
 * / \                                                         mp2_ri_2c.F:892 *
 *******************************************************************************


 ===== Routine Calling Stack ===== 

            7 compute_2c_integrals
            6 get_2c_integrals
            5 mp2_ri_gpw_compute_in
            4 mp2_gpw_main
            3 mp2_main
            2 qs_energies
            1 CP2K

 *******************************************************************************
 *   ___                                                                       *
 *  /   \                                                                      *
 * [ABORT]                                                                     *
 *  \___/   Product of block size and number of RI functions should not exceed *
 *    |                          total number of processes                     *
 *  O/|                                                                        *
 * /| |                                                                        *
 * / \                                                         mp2_ri_2c.F:892 *
 *******************************************************************************


 ===== Routine Calling Stack ===== 

            7 compute_2c_integrals
            6 get_2c_integrals
            5 mp2_ri_gpw_compute_in
            4 mp2_gpw_main
            3 mp2_main
            2 qs_energies
            1 CP2K

 *******************************************************************************
 *   ___                                                                       *
 *  /   \                                                                      *
 * [ABORT]                                                                     *
 *  \___/   Product of block size and number of RI functions should not exceed *
 *    |                          total number of processes                     *
 *  O/|                                                                        *
 * /| |                                                                        *
 * / \                                                         mp2_ri_2c.F:892 *
 *******************************************************************************


 ===== Routine Calling Stack ===== 

            7 compute_2c_integrals
            6 get_2c_integrals
            5 mp2_ri_gpw_compute_in
            4 mp2_gpw_main
            3 mp2_main
            2 qs_energies
            1 CP2K

 *******************************************************************************
 *   ___                                                                       *
 *  /   \                                                                      *
 * [ABORT]                                                                     *
 *  \___/   Product of block size and number of RI functions should not exceed *
 *    |                          total number of processes                     *
 *  O/|                                                                        *
 * /| |                                                                        *
 * / \                                                         mp2_ri_2c.F:892 *
 *******************************************************************************


 ===== Routine Calling Stack ===== 

            7 compute_2c_integrals
            6 get_2c_integrals
            5 mp2_ri_gpw_compute_in
            4 mp2_gpw_main
            3 mp2_main
            2 qs_energies
            1 CP2K

 *******************************************************************************
 *   ___                                                                       *
 *  /   \                                                                      *
 * [ABORT]                                                                     *
 *  \___/   Product of block size and number of RI functions should not exceed *
 *    |                          total number of processes                     *
 *  O/|                                                                        *
 * /| |                                                                        *
 * / \                                                         mp2_ri_2c.F:892 *
 *******************************************************************************


 ===== Routine Calling Stack ===== 

            7 compute_2c_integrals
            6 get_2c_integrals
            5 mp2_ri_gpw_compute_in
            4 mp2_gpw_main
            3 mp2_main
            2 qs_energies
            1 CP2K
                                                                    *
 * / \                                                         mp2_ri_2c.F:892 *
 *******************************************************************************


 ===== Routine Calling Stack ===== 

            7 compute_2c_integrals
            6 get_2c_integrals
            5 mp2_ri_gpw_compute_in
            4 mp2_gpw_main
            3 mp2_main
            2 qs_energies
            1 CP2K

 *******************************************************************************
 *   ___                                                                       *
 *  /   \                                                                      *
 * [ABORT]                                                                     *
 *  \___/   Product of block size and number of RI functions should not exceed *
 *    |                          total number of processes                     *
 *  O/|                                                                        *
 * /| |                                                                        *
 * / \                                                         mp2_ri_2c.F:892 *
 *******************************************************************************


 ===== Routine Calling Stack ===== 

            7 compute_2c_integrals
            6 get_2c_integrals

 *******************************************************************************
 *   ___                                                                       *
 *  /   \                                                                      *
 * [ABORT]                                                                     *
 *  \___/   Product of block size and number of RI functions should not exceed *
 *    |                          total number of processes                     *
 *  O/|                                                                        *
 * /| |                                                                        *
 * / \                                                         mp2_ri_2c.F:892 *
 *******************************************************************************


 ===== Routine Calling Stack ===== 

            7 compute_2c_integrals
            6 get_2c_integrals
            5 mp2_ri_gpw_compute_in
            4 mp2_gpw_main
            3 mp2_main
            2 qs_energies
            1 CP2K

 *******************************************************************************
 *   ___                                                                       *
 *  /   \                                                                      *
 * [ABORT]                                                                     *
 *  \___/   Product of block size and number of RI functions should not exceed *
 *    |                          total number of processes                     *
 *  O/|                                                                        *
 * /| |                                                                        *
 * / \                                                         mp2_ri_2c.F:892 *
 *******************************************************************************


 ===== Routine Calling Stack ===== 

            7 compute_2c_integrals
            6 get_2c_integrals
            5 mp2_ri_gpw_compute_in
            4 mp2_gpw_main
            3 mp2_main
            2 qs_energies
            1 CP2K

 *******************************************************************************
 *   ___                                                                       *
 *  /   \                                                                      *
 * [ABORT]                                                                     *
 *  \___/   Product of block size and number of RI functions should not exceed *
 *    |                          total number of processes                     *
 *  O/|                                                                        *
 * /| |                                                                        *
 * / \                                                         mp2_ri_2c.F:892 *
 *******************************************************************************


 ===== Routine Calling Stack ===== 

            7 compute_2c_integrals
            6 get_2c_integrals
            5 mp2_ri_gpw_compute_in
            4 mp2_gpw_main
            3 mp2_main
            2 qs_energies
            1 CP2K

 *******************************************************************************
 *   ___                                                                       *
 *  /   \                                                                      *
 * [ABORT]                                                                     *
 *  \___/   Product of block size and number of RI functions should not exceed *
 *    |                          total number of processes                     *
 *  O/|                                                                        *
 * /| |                                                                        *
 * / \                                                         mp2_ri_2c.F:892 *
 *******************************************************************************


 ===== Routine Calling Stack ===== 

            7 compute_2c_integrals
            6 get_2c_integrals
            5 mp2_ri_gpw_compute_in
            4 mp2_gpw_main
            3 mp2_main
            2 qs_energies
            1 CP2K

 *******************************************************************************
 *   ___                                                                       *
 *  /   \                                                                      *
 * [ABORT]                                                                     *
 *  \___/   Product of block size and number of RI functions should not exceed *
 *    |                          total number of processes                     *
 *  O/|                                                                        *
 * /| |                                                                        *
 * / \                                                         mp2_ri_2c.F:892 *
 *******************************************************************************


 ===== Routine Calling Stack ===== 

            7 compute_2c_integrals
            6 get_2c_integrals
            5 mp2_ri_gpw_compute_in
            4 mp2_gpw_main
            3 mp2_main
            2 qs_energies
            1 CP2K

 *******************************************************************************
 *   ___                                                                       *
 *  /   \                                                                      *
 * [ABORT]                                                                     *
 *  \___/   Product of block size and number of RI functions should not exceed *
 *    |                          total number of processes                     *
 *  O/|                                                                        *
 * /| |                                                                        *
 * / \                                                         mp2_ri_2c.F:892 *
 *******************************************************************************


 ===== Routine Calling Stack ===== 

            7 compute_2c_integrals
            6 get_2c_integrals
            5 mp2_ri_gpw_compute_in
            4 mp2_gpw_main
            3 mp2_main
            2 qs_energies
            1 CP2K

 *******************************************************************************
 *   ___                                                                       *
 *  /   \                                                                      *
 * [ABORT]                                                                     *
 *  \___/   Product of block size and number of RI functions should not exceed *
 *    |                          total number of processes                     *
 *  O/|                                                                        *
 * /| |                                                                        *
 * / \                                                         mp2_ri_2c.F:892 *
 *******************************************************************************


 ===== Routine Calling Stack ===== 

            7 compute_2c_integrals
            6 get_2c_integrals
            5 mp2_ri_gpw_compute_in
            4 mp2_gpw_main
            3 mp2_main
            2 qs_energies
            1 CP2K

 *******************************************************************************
 *   ___                                                                       *
 *  /   \                                                                      *
 * [ABORT]                                                                     *
 *  \___/   Product of block size and number of RI functions should not exceed *
 *    |                          total number of processes                     *
 *  O/|                                                                        *
 * /| |                                                                        *
 * / \                                                         mp2_ri_2c.F:892 *
 *******************************************************************************


 ===== Routine Calling Stack ===== 

            7 compute_2c_integrals
            6 get_2c_integrals
            5 mp2_ri_gpw_compute_in
            4 mp2_gpw_main
            3 mp2_main
            2 qs_energies
            1 CP2K

 *******************************************************************************
 *   ___                                                                       *
 *  /   \                                                                      *
 * [ABORT]                                                                     *
 *  \___/   Product of block size and number of RI functions should not exceed *
 *    |                          total number of processes                     *
 *  O/|                                                                        *
 * /| |                                                                        *
 * / \                                                         mp2_ri_2c.F:892 *
 *******************************************************************************


 ===== Routine Calling Stack ===== 

            7 compute_2c_integrals
            6 get_2c_integrals
            5 mp2_ri_gpw_compute_in
            4 mp2_gpw_main
            3 mp2_main
            2 qs_energies
            1 CP2K

 *******************************************************************************
 *   ___                                                                       *
 *  /   \                                                                      *
 * [ABORT]                                                                     *
 *  \___/   Product of block size and number of RI functions should not exceed *
 *    |                          total number of processes                     *
 *  O/|                                                                        *
 * /| |                                                                        *
 * / \                                                         mp2_ri_2c.F:892 *
 *******************************************************************************


 ===== Routine Calling Stack ===== 

            7 compute_2c_integrals
            6 get_2c_integrals
            5 mp2_ri_gpw_compute_in
            4 mp2_gpw_main
            3 mp2_main
            2 qs_energies
            1 CP2K

 *******************************************************************************
 *   ___                                                                       *
 *  /   \                                                                      *
 * [ABORT]                                                                     *
 *  \___/   Product of block size and number of RI functions should not exceed *
 *    |                          total number of processes                     *
 *  O/|                                                                        *
 * /| |                                                                        *
 * / \                                                         mp2_ri_2c.F:892 *
 *******************************************************************************


 ===== Routine Calling Stack ===== 

            7 compute_2c_integrals
            6 get_2c_integrals
            5 mp2_ri_gpw_compute_in
            4 mp2_gpw_main
            3 mp2_main
            2 qs_energies
            1 CP2K
            5 mp2_ri_gpw_compute_in
            4 mp2_gpw_main
            3 mp2_main
            2 qs_energies
            1 CP2K
