 DBCSR| CPU Multiplication driver                                           BLAS (U)
 DBCSR| Multrec recursion limit                                              512 (U)
 DBCSR| Multiplication stack size                                           1000 (D)
 DBCSR| Maximum elements for images                                    UNLIMITED (U)
 DBCSR| Multiplicative factor virtual images                                   1 (U)
 DBCSR| Use multiplication densification                                       T (D)
 DBCSR| Multiplication size stacks                                             3 (U)
 DBCSR| Use memory pool for CPU allocation                                     F (U)
 DBCSR| Number of 3D layers                                               SINGLE (U)
 DBCSR| Use MPI memory allocation                                              F (U)
 DBCSR| Use RMA algorithm                                                      F (U)
 DBCSR| Use Communication thread                                               T (U)
 DBCSR| Communication thread load                                             75 (D)
 DBCSR| MPI: My process id                                                     0
 DBCSR| MPI: Number of processes                                              48
 DBCSR| OMP: Current number of threads                                         4
 DBCSR| OMP: Max number of threads                                             4
 DBCSR| Split modifier for TAS multiplication algorithm                  1.0E+00 (U)


  **** **** ******  **  PROGRAM STARTED AT               2025-03-19 01:23:46.397
 ***** ** ***  *** **   PROGRAM STARTED ON                          i04r06c06s01
 **    ****   ******    PROGRAM STARTED BY                               di38fab
 ***** **    ** ** **   PROGRAM PROCESS ID                                406983
  **** **  *******  **  PROGRAM STARTED IN /hppfs/scratch/04/di38fab/05_MOL/W4-1
                                           1+ALK/bh/aug-cc-pV5Z/GW+BSE

 CP2K| version string:                 CP2K version 2025.1 (Development Version)
 CP2K| source code revision number:                                  git:d2e611a
 CP2K| cp2kflags: omp libint fftw3 libxc parallel scalapack max_contr=4         
 CP2K| is freely available from                            https://www.cp2k.org/
 CP2K| Program compiled at                       Thu 06 Mar 2025 05:09:20 PM CET
 CP2K| Program compiled on                                               login02
 CP2K| Program compiled for                                        Supermuc-foss
 CP2K| Data directory path                  /hppfs/work/pn36zo/di38fab/cp2k/data
 CP2K| Input file name                                                    GW.inp

 GLOBAL| Force Environment number                                              1
 GLOBAL| Basis set file name            /hppfs/scratch/04/di38fab/04_TMD/BASIS_A
 GLOBAL| Potential file name            /hppfs/work/pn36zo/di38fab/cp2k/data/ALL
 GLOBAL| MM Potential file name                                     MM_POTENTIAL
 GLOBAL| Coordinate file name                                      __STD_INPUT__
 GLOBAL| Method name                                                        CP2K
 GLOBAL| Project name                                                       MoS2
 GLOBAL| Run type                                                         ENERGY
 GLOBAL| FFT library                                                       FFTW3
 GLOBAL| Diagonalization library                                       ScaLAPACK
 GLOBAL| DGEMM library                                                      BLAS
 GLOBAL| Orthonormality check for eigenvectors                          DISABLED
 GLOBAL| Matrix multiplication library                                 ScaLAPACK
 GLOBAL| All-to-all communication in single precision                          F
 GLOBAL| FFTs using library dependent lengths                                  F
 GLOBAL| Grid backend                                                       AUTO
 GLOBAL| Global print level                                               MEDIUM
 GLOBAL| MPI I/O enabled                                                       T
 GLOBAL| Total number of message passing processes                            48
 GLOBAL| Number of threads for this process                                    4
 GLOBAL| This output is from process                                           0
 GLOBAL| OpenMP stack size per thread (OMP_STACKSIZE)                    default
 GLOBAL| CPU model name             Intel(R) Xeon(R) Platinum 8174 CPU @ 3.10GHz

 MEMORY| system memory details [Kb]
 MEMORY|                        rank 0           min           max       average
 MEMORY| MemTotal             98436664      98436664      98436664      98436664
 MEMORY| MemFree              83963920      83480440      84096452      83895225
 MEMORY| Buffers                     0             0             0             0
 MEMORY| Cached                2418916       2387716       2418916       2402712
 MEMORY| Slab                  1250328       1211172       1250328       1234192
 MEMORY| SReclaimable           282136        268592        282136        276275
 MEMORY| MemLikelyFree        86664972      86166376      86769104      86574212


 *** Fundamental physical constants (SI units) ***

 *** Literature: B. J. Mohr and B. N. Taylor,
 ***             CODATA recommended values of the fundamental physical
 ***             constants: 2006, Web Version 5.1
 ***             http://physics.nist.gov/constants

 Speed of light in vacuum [m/s]                             2.99792458000000E+08
 Magnetic constant or permeability of vacuum [N/A**2]       1.25663706143592E-06
 Electric constant or permittivity of vacuum [F/m]          8.85418781762039E-12
 Planck constant (h) [J*s]                                  6.62606896000000E-34
 Planck constant (h-bar) [J*s]                              1.05457162825177E-34
 Elementary charge [C]                                      1.60217648700000E-19
 Electron mass [kg]                                         9.10938215000000E-31
 Electron g factor [ ]                                     -2.00231930436220E+00
 Proton mass [kg]                                           1.67262163700000E-27
 Fine-structure constant                                    7.29735253760000E-03
 Rydberg constant [1/m]                                     1.09737315685270E+07
 Avogadro constant [1/mol]                                  6.02214179000000E+23
 Boltzmann constant [J/K]                                   1.38065040000000E-23
 Atomic mass unit [kg]                                      1.66053878200000E-27
 Bohr radius [m]                                            5.29177208590000E-11

 *** Conversion factors ***

 [u] -> [a.u.]                                              1.82288848426455E+03
 [Angstrom] -> [Bohr] = [a.u.]                              1.88972613288564E+00
 [a.u.] = [Bohr] -> [Angstrom]                              5.29177208590000E-01
 [a.u.] -> [s]                                              2.41888432650478E-17
 [a.u.] -> [fs]                                             2.41888432650478E-02
 [a.u.] -> [J]                                              4.35974393937059E-18
 [a.u.] -> [N]                                              8.23872205491840E-08
 [a.u.] -> [K]                                              3.15774647902944E+05
 [a.u.] -> [kJ/mol]                                         2.62549961709828E+03
 [a.u.] -> [kcal/mol]                                       6.27509468713739E+02
 [a.u.] -> [Pa]                                             2.94210107994716E+13
 [a.u.] -> [bar]                                            2.94210107994716E+08
 [a.u.] -> [atm]                                            2.90362800883016E+08
 [a.u.] -> [eV]                                             2.72113838565563E+01
 [a.u.] -> [Hz]                                             6.57968392072181E+15
 [a.u.] -> [1/cm] (wave numbers)                            2.19474631370540E+05
 [a.u./Bohr**2] -> [1/cm]                                   5.14048714338585E+03
 

 CELL_TOP| Volume [angstrom^3]:                                     27000.000000
 CELL_TOP| Vector a [angstrom    30.000     0.000     0.000   |a| =    30.000000
 CELL_TOP| Vector b [angstrom     0.000    30.000     0.000   |b| =    30.000000
 CELL_TOP| Vector c [angstrom     0.000     0.000    30.000   |c| =    30.000000
 CELL_TOP| Angle (b,c), alpha [degree]:                                90.000000
 CELL_TOP| Angle (a,c), beta  [degree]:                                90.000000
 CELL_TOP| Angle (a,b), gamma [degree]:                                90.000000
 CELL_TOP| Numerically orthorhombic:                                         YES
 CELL_TOP| Periodicity                                                      NONE

 GENERATE|  Preliminary Number of Bonds generated:                             0
 GENERATE|  Achieved consistency in connectivity generation.

 CELL| Volume [angstrom^3]:                                         27000.000000
 CELL| Vector a [angstrom]:      30.000     0.000     0.000   |a| =    30.000000
 CELL| Vector b [angstrom]:       0.000    30.000     0.000   |b| =    30.000000
 CELL| Vector c [angstrom]:       0.000     0.000    30.000   |c| =    30.000000
 CELL| Angle (b,c), alpha [degree]:                                    90.000000
 CELL| Angle (a,c), beta  [degree]:                                    90.000000
 CELL| Angle (a,b), gamma [degree]:                                    90.000000
 CELL| Numerically orthorhombic:                                             YES
 CELL| Periodicity                                                          NONE

 CELL_REF| Volume [angstrom^3]:                                     27000.000000
 CELL_REF| Vector a [angstrom    30.000     0.000     0.000   |a| =    30.000000
 CELL_REF| Vector b [angstrom     0.000    30.000     0.000   |b| =    30.000000
 CELL_REF| Vector c [angstrom     0.000     0.000    30.000   |c| =    30.000000
 CELL_REF| Angle (b,c), alpha [degree]:                                90.000000
 CELL_REF| Angle (a,c), beta  [degree]:                                90.000000
 CELL_REF| Angle (a,b), gamma [degree]:                                90.000000
 CELL_REF| Numerically orthorhombic:                                         YES
 CELL_REF| Periodicity                                                      NONE

 *******************************************************************************
 *******************************************************************************
 **                                                                           **
 **     #####                         ##              ##                      **
 **    ##   ##            ##          ##              ##                      **
 **   ##     ##                       ##            ######                    **
 **   ##     ##  ##   ##  ##   #####  ##  ##   ####   ##    #####    #####    **
 **   ##     ##  ##   ##  ##  ##      ## ##   ##      ##   ##   ##  ##   ##   **
 **   ##  ## ##  ##   ##  ##  ##      ####     ###    ##   ######   ######    **
 **    ##  ###   ##   ##  ##  ##      ## ##      ##   ##   ##       ##        **
 **     #######   #####   ##   #####  ##  ##  ####    ##    #####   ##        **
 **           ##                                                    ##        **
 **                                                                           **
 **                                                ... make the atoms dance   **
 **                                                                           **
 **            Copyright (C) by CP2K developers group (2000-2025)             **
 **                      J. Chem. Phys. 152, 194103 (2020)                    **
 **                                                                           **
 *******************************************************************************

 DFT| Spin restricted Kohn-Sham (RKS) calculation                            RKS
 DFT| Multiplicity                                                             1
 DFT| Number of spin states                                                    1
 DFT| Charge                                                                   0
 DFT| Self-interaction correction (SIC)                                       NO
 DFT| Cutoffs: density                                              1.000000E-10
 DFT|          gradient                                             1.000000E-10
 DFT|          tau                                                  1.000000E-10
 DFT|          cutoff_smoothing_range                               0.000000E+00
 DFT| XC density smoothing                                                  NONE
 DFT| XC derivatives                                                          PW

 FUNCTIONAL| PBE:
 FUNCTIONAL| J.P.Perdew, K.Burke, M.Ernzerhof, Phys. Rev. Letter, vol. 77, n 18,
 FUNCTIONAL|  pp. 3865-3868, (1996)sx=0.750sc=1.000{spin unpolarized}           


 QS| Method:                                                                GAPW
 QS| Density plane wave grid type                        NON-SPHERICAL FULLSPACE
 QS| Number of grid levels:                                                    4
 QS| Density cutoff [a.u.]:                                                250.0
 QS| Multi grid cutoff [a.u.]: 1) grid level                               250.0
 QS|                           2) grid level                                83.3
 QS|                           3) grid level                                27.8
 QS|                           4) grid level                                 9.3
 QS| Grid level progression factor:                                          3.0
 QS| Relative density cutoff [a.u.]:                                        50.0
 QS| Interaction thresholds: eps_pgf_orb:                                1.0E-12
 QS|                         eps_filter_matrix:                          0.0E+00
 QS|                         eps_core_charge:                            1.0E-14
 QS|                         eps_rho_gspace:                             1.0E-12
 QS|                         eps_rho_rspace:                             1.0E-12
 QS|                         eps_gvg_rspace:                             1.0E-06
 QS|                         eps_ppl:                                    1.0E-02
 QS|                         eps_ppnl:                                   1.0E-08
 QS| GAPW|      One center basis from orbital basis primitives
 QS| GAPW|                   eps_fit:                                    1.0E-04
 QS| GAPW|                   eps_iso:                                    1.0E-12
 QS| GAPW|                   eps_svd:                                    1.0E-08
 QS| GAPW|                   eps_cpc:                                    1.0E-12
 QS| GAPW|   atom-r-grid: quadrature:                                     GC_LOG
 QS| GAPW|      atom-s-grid:  max l :                                         10
 QS| GAPW|      max_l_rho0 :                                                   2


 ATOMIC KIND INFORMATION

  1. Atomic kind: B                                     Number of atoms:       1

     Orbital Basis Set                                               aug-cc-pV5Z

       Number of orbital shell sets:                                          12
       Number of orbital shells:                                              27
       Number of primitive Cartesian functions:                               38
       Number of Cartesian basis functions:                                  182
       Number of spherical basis functions:                                  127
       Norm type:                                                              2

       Normalised Cartesian orbitals:

                        Set   Shell   Orbital            Exponent    Coefficient

                          1       1    1px               0.015700       0.007922
                          1       1    1py               0.015700       0.007922
                          1       1    1pz               0.015700       0.007922

                          2       1    1s                0.026100       0.046280

                          3       1    1dx2              0.043100       0.006710
                          3       1    1dxy              0.043100       0.011623
                          3       1    1dxz              0.043100       0.011623
                          3       1    1dy2              0.043100       0.006710
                          3       1    1dyz              0.043100       0.011623
                          3       1    1dz2              0.043100       0.006710

                          4       1    1px              66.440000       0.000000
                                                        15.710000       0.000000
                                                         4.936000       0.000000
                                                         1.770000       0.000000
                                                         0.700800       0.913972
                                                         0.290100       0.000000
                                                         0.121100       0.000000
                                                         0.049730       0.000000
                          4       1    1py              66.440000       0.000000
                                                        15.710000       0.000000
                                                         4.936000       0.000000
                                                         1.770000       0.000000
                                                         0.700800       0.913972
                                                         0.290100       0.000000
                                                         0.121100       0.000000
                                                         0.049730       0.000000
                          4       1    1pz              66.440000       0.000000
                                                        15.710000       0.000000
                                                         4.936000       0.000000
                                                         1.770000       0.000000
                                                         0.700800       0.913972
                                                         0.290100       0.000000
                                                         0.121100       0.000000
                                                         0.049730       0.000000

                          4       2    2px              66.440000       0.000000
                                                        15.710000       0.000000
                                                         4.936000       0.000000
                                                         1.770000       0.000000
                                                         0.700800       0.000000
                                                         0.290100       0.303476
                                                         0.121100       0.000000
                                                         0.049730       0.000000
                          4       2    2py              66.440000       0.000000
                                                        15.710000       0.000000
                                                         4.936000       0.000000
                                                         1.770000       0.000000
                                                         0.700800       0.000000
                                                         0.290100       0.303476
                                                         0.121100       0.000000
                                                         0.049730       0.000000
                          4       2    2pz              66.440000       0.000000
                                                        15.710000       0.000000
                                                         4.936000       0.000000
                                                         1.770000       0.000000
                                                         0.700800       0.000000
                                                         0.290100       0.303476
                                                         0.121100       0.000000
                                                         0.049730       0.000000

                          4       3    3px              66.440000       0.226580
                                                        15.710000       0.285726
                                                         4.936000       0.294491
                                                         1.770000       0.268171
                                                         0.700800       0.204879
                                                         0.290100       0.112260
                                                         0.121100       0.038129
                                                         0.049730       0.004656
                          4       3    3py              66.440000       0.226580
                                                        15.710000       0.285726
                                                         4.936000       0.294491
                                                         1.770000       0.268171
                                                         0.700800       0.204879
                                                         0.290100       0.112260
                                                         0.121100       0.038129
                                                         0.049730       0.004656
                          4       3    3pz              66.440000       0.226580
                                                        15.710000       0.285726
                                                         4.936000       0.294491
                                                         1.770000       0.268171
                                                         0.700800       0.204879
                                                         0.290100       0.112260
                                                         0.121100       0.038129
                                                         0.049730       0.004656

                          4       4    4px              66.440000       0.000000
                                                        15.710000       0.000000
                                                         4.936000       0.000000
                                                         1.770000       0.000000
                                                         0.700800       0.000000
                                                         0.290100       0.000000
                                                         0.121100       0.101829
                                                         0.049730       0.000000
                          4       4    4py              66.440000       0.000000
                                                        15.710000       0.000000
                                                         4.936000       0.000000
                                                         1.770000       0.000000
                                                         0.700800       0.000000
                                                         0.290100       0.000000
                                                         0.121100       0.101829
                                                         0.049730       0.000000
                          4       4    4pz              66.440000       0.000000
                                                        15.710000       0.000000
                                                         4.936000       0.000000
                                                         1.770000       0.000000
                                                         0.700800       0.000000
                                                         0.290100       0.000000
                                                         0.121100       0.101829
                                                         0.049730       0.000000

                          4       5    5px              66.440000       0.000000
                                                        15.710000       0.000000
                                                         4.936000       0.000000
                                                         1.770000       0.000000
                                                         0.700800       0.000000
                                                         0.290100       0.000000
                                                         0.121100       0.000000
                                                         0.049730       0.033474
                          4       5    5py              66.440000       0.000000
                                                        15.710000       0.000000
                                                         4.936000       0.000000
                                                         1.770000       0.000000
                                                         0.700800       0.000000
                                                         0.290100       0.000000
                                                         0.121100       0.000000
                                                         0.049730       0.033474
                          4       5    5pz              66.440000       0.000000
                                                        15.710000       0.000000
                                                         4.936000       0.000000
                                                         1.770000       0.000000
                                                         0.700800       0.000000
                                                         0.290100       0.000000
                                                         0.121100       0.000000
                                                         0.049730       0.033474

                          5       1    1s            68260.000000       0.072235
                                                     10230.000000       0.134118
                                                      2328.000000       0.231696
                                                       660.400000       0.376585
                                                       216.200000       0.578608
                                                        78.600000       0.825946
                                                        30.980000       1.058080
                                                        12.960000       1.138295
                                                         5.659000       0.925591
                                                         2.556000       0.434446
                                                         1.175000       0.070396
                                                         0.424900       0.001057
                                                         0.171200       0.000008
                                                         0.069130       0.000007

                          5       2    2s            68260.000000       0.000000
                                                     10230.000000       0.000000
                                                      2328.000000       0.000000
                                                       660.400000       0.000000
                                                       216.200000       0.000000
                                                        78.600000       0.000000
                                                        30.980000       0.000000
                                                        12.960000       0.000000
                                                         5.659000       0.000000
                                                         2.556000       0.000000
                                                         1.175000       0.804338
                                                         0.424900       0.000000
                                                         0.171200       0.000000
                                                         0.069130       0.000000

                          5       3    3s            68260.000000       0.000000
                                                     10230.000000       0.000000
                                                      2328.000000       0.000000
                                                       660.400000       0.000000
                                                       216.200000       0.000000
                                                        78.600000       0.000000
                                                        30.980000       0.000000
                                                        12.960000       0.000000
                                                         5.659000       0.000000
                                                         2.556000       0.000000
                                                         1.175000       0.000000
                                                         0.424900       0.375081
                                                         0.171200       0.000000
                                                         0.069130       0.000000

                          5       4    4s            68260.000000       0.000000
                                                     10230.000000       0.000000
                                                      2328.000000       0.000000
                                                       660.400000       0.000000
                                                       216.200000       0.000000
                                                        78.600000       0.000000
                                                        30.980000       0.000000
                                                        12.960000       0.000000
                                                         5.659000       0.000000
                                                         2.556000       0.000000
                                                         1.175000       0.000000
                                                         0.424900       0.000000
                                                         0.171200       0.189687
                                                         0.069130       0.000000

                          5       5    5s            68260.000000      -0.015049
                                                     10230.000000      -0.026824
                                                      2328.000000      -0.046817
                                                       660.400000      -0.076506
                                                       216.200000      -0.117458
                                                        78.600000      -0.171921
                                                        30.980000      -0.225594
                                                        12.960000      -0.266556
                                                         5.659000      -0.253502
                                                         2.556000      -0.198078
                                                         1.175000      -0.035845
                                                         0.424900       0.121656
                                                         0.171200       0.108200
                                                         0.069130       0.023392

                          5       6    6s            68260.000000       0.000000
                                                     10230.000000       0.000000
                                                      2328.000000       0.000000
                                                       660.400000       0.000000
                                                       216.200000       0.000000
                                                        78.600000       0.000000
                                                        30.980000       0.000000
                                                        12.960000       0.000000
                                                         5.659000       0.000000
                                                         2.556000       0.000000
                                                         1.175000       0.000000
                                                         0.424900       0.000000
                                                         0.171200       0.000000
                                                         0.069130       0.096086

                          6       1    1fx3              0.084300       0.005637
                          6       1    1fx2y             0.084300       0.012605
                          6       1    1fx2z             0.084300       0.012605
                          6       1    1fxy2             0.084300       0.012605
                          6       1    1fxyz             0.084300       0.021833
                          6       1    1fxz2             0.084300       0.012605
                          6       1    1fy3              0.084300       0.005637
                          6       1    1fy2z             0.084300       0.012605
                          6       1    1fyz2             0.084300       0.012605
                          6       1    1fz3              0.084300       0.005637

                          7       1    1dx2              2.010000       5.584735
                                                         0.796000       0.000000
                                                         0.316000       0.000000
                                                         0.125000       0.000000
                          7       1    1dxy              2.010000       9.673044
                                                         0.796000       0.000000
                                                         0.316000       0.000000
                                                         0.125000       0.000000
                          7       1    1dxz              2.010000       9.673044
                                                         0.796000       0.000000
                                                         0.316000       0.000000
                                                         0.125000       0.000000
                          7       1    1dy2              2.010000       5.584735
                                                         0.796000       0.000000
                                                         0.316000       0.000000
                                                         0.125000       0.000000
                          7       1    1dyz              2.010000       9.673044
                                                         0.796000       0.000000
                                                         0.316000       0.000000
                                                         0.125000       0.000000
                          7       1    1dz2              2.010000       5.584735
                                                         0.796000       0.000000
                                                         0.316000       0.000000
                                                         0.125000       0.000000

                          7       2    2dx2              2.010000       0.000000
                                                         0.796000       1.104097
                                                         0.316000       0.000000
                                                         0.125000       0.000000
                          7       2    2dxy              2.010000       0.000000
                                                         0.796000       1.912353
                                                         0.316000       0.000000
                                                         0.125000       0.000000
                          7       2    2dxz              2.010000       0.000000
                                                         0.796000       1.912353
                                                         0.316000       0.000000
                                                         0.125000       0.000000
                          7       2    2dy2              2.010000       0.000000
                                                         0.796000       1.104097
                                                         0.316000       0.000000
                                                         0.125000       0.000000
                          7       2    2dyz              2.010000       0.000000
                                                         0.796000       1.912353
                                                         0.316000       0.000000
                                                         0.125000       0.000000
                          7       2    2dz2              2.010000       0.000000
                                                         0.796000       1.104097
                                                         0.316000       0.000000
                                                         0.125000       0.000000

                          7       3    3dx2              2.010000       0.000000
                                                         0.796000       0.000000
                                                         0.316000       0.219211
                                                         0.125000       0.000000
                          7       3    3dxy              2.010000       0.000000
                                                         0.796000       0.000000
                                                         0.316000       0.379684
                                                         0.125000       0.000000
                          7       3    3dxz              2.010000       0.000000
                                                         0.796000       0.000000
                                                         0.316000       0.379684
                                                         0.125000       0.000000
                          7       3    3dy2              2.010000       0.000000
                                                         0.796000       0.000000
                                                         0.316000       0.219211
                                                         0.125000       0.000000
                          7       3    3dyz              2.010000       0.000000
                                                         0.796000       0.000000
                                                         0.316000       0.379684
                                                         0.125000       0.000000
                          7       3    3dz2              2.010000       0.000000
                                                         0.796000       0.000000
                                                         0.316000       0.219211
                                                         0.125000       0.000000

                          7       4    4dx2              2.010000       0.000000
                                                         0.796000       0.000000
                                                         0.316000       0.000000
                                                         0.125000       0.043252
                          7       4    4dxy              2.010000       0.000000
                                                         0.796000       0.000000
                                                         0.316000       0.000000
                                                         0.125000       0.074914
                          7       4    4dxz              2.010000       0.000000
                                                         0.796000       0.000000
                                                         0.316000       0.000000
                                                         0.125000       0.074914
                          7       4    4dy2              2.010000       0.000000
                                                         0.796000       0.000000
                                                         0.316000       0.000000
                                                         0.125000       0.043252
                          7       4    4dyz              2.010000       0.000000
                                                         0.796000       0.000000
                                                         0.316000       0.000000
                                                         0.125000       0.074914
                          7       4    4dz2              2.010000       0.000000
                                                         0.796000       0.000000
                                                         0.316000       0.000000
                                                         0.125000       0.043252

                          8       1    1gx4              0.202000       0.013682
                          8       1    1gx3y             0.202000       0.036199
                          8       1    1gx3z             0.202000       0.036199
                          8       1    1gx2y2            0.202000       0.046733
                          8       1    1gx2yz            0.202000       0.080944
                          8       1    1gx2z2            0.202000       0.046733
                          8       1    1gxy3             0.202000       0.036199
                          8       1    1gxy2z            0.202000       0.080944
                          8       1    1gxyz2            0.202000       0.080944
                          8       1    1gxz3             0.202000       0.036199
                          8       1    1gy4              0.202000       0.013682
                          8       1    1gy3z             0.202000       0.036199
                          8       1    1gy2z2            0.202000       0.046733
                          8       1    1gyz3             0.202000       0.036199
                          8       1    1gz4              0.202000       0.013682

                          9       1    1fx3              1.215000       2.281661
                                                         0.525000       0.000000
                                                         0.227000       0.000000
                          9       1    1fx2y             1.215000       5.101949
                                                         0.525000       0.000000
                                                         0.227000       0.000000
                          9       1    1fx2z             1.215000       5.101949
                                                         0.525000       0.000000
                                                         0.227000       0.000000
                          9       1    1fxy2             1.215000       5.101949
                                                         0.525000       0.000000
                                                         0.227000       0.000000
                          9       1    1fxyz             1.215000       8.836834
                                                         0.525000       0.000000
                                                         0.227000       0.000000
                          9       1    1fxz2             1.215000       5.101949
                                                         0.525000       0.000000
                                                         0.227000       0.000000
                          9       1    1fy3              1.215000       2.281661
                                                         0.525000       0.000000
                                                         0.227000       0.000000
                          9       1    1fy2z             1.215000       5.101949
                                                         0.525000       0.000000
                                                         0.227000       0.000000
                          9       1    1fyz2             1.215000       5.101949
                                                         0.525000       0.000000
                                                         0.227000       0.000000
                          9       1    1fz3              1.215000       2.281661
                                                         0.525000       0.000000
                                                         0.227000       0.000000

                          9       2    2fx3              1.215000       0.000000
                                                         0.525000       0.345392
                                                         0.227000       0.000000
                          9       2    2fx2y             1.215000       0.000000
                                                         0.525000       0.772321
                                                         0.227000       0.000000
                          9       2    2fx2z             1.215000       0.000000
                                                         0.525000       0.772321
                                                         0.227000       0.000000
                          9       2    2fxy2             1.215000       0.000000
                                                         0.525000       0.772321
                                                         0.227000       0.000000
                          9       2    2fxyz             1.215000       0.000000
                                                         0.525000       1.337699
                                                         0.227000       0.000000
                          9       2    2fxz2             1.215000       0.000000
                                                         0.525000       0.772321
                                                         0.227000       0.000000
                          9       2    2fy3              1.215000       0.000000
                                                         0.525000       0.345392
                                                         0.227000       0.000000
                          9       2    2fy2z             1.215000       0.000000
                                                         0.525000       0.772321
                                                         0.227000       0.000000
                          9       2    2fyz2             1.215000       0.000000
                                                         0.525000       0.772321
                                                         0.227000       0.000000
                          9       2    2fz3              1.215000       0.000000
                                                         0.525000       0.345392
                                                         0.227000       0.000000

                          9       3    3fx3              1.215000       0.000000
                                                         0.525000       0.000000
                                                         0.227000       0.052362
                          9       3    3fx2y             1.215000       0.000000
                                                         0.525000       0.000000
                                                         0.227000       0.117084
                          9       3    3fx2z             1.215000       0.000000
                                                         0.525000       0.000000
                                                         0.227000       0.117084
                          9       3    3fxy2             1.215000       0.000000
                                                         0.525000       0.000000
                                                         0.227000       0.117084
                          9       3    3fxyz             1.215000       0.000000
                                                         0.525000       0.000000
                                                         0.227000       0.202795
                          9       3    3fxz2             1.215000       0.000000
                                                         0.525000       0.000000
                                                         0.227000       0.117084
                          9       3    3fy3              1.215000       0.000000
                                                         0.525000       0.000000
                                                         0.227000       0.052362
                          9       3    3fy2z             1.215000       0.000000
                                                         0.525000       0.000000
                                                         0.227000       0.117084
                          9       3    3fyz2             1.215000       0.000000
                                                         0.525000       0.000000
                                                         0.227000       0.117084
                          9       3    3fz3              1.215000       0.000000
                                                         0.525000       0.000000
                                                         0.227000       0.052362

                         10       1    1hx5              0.384000       0.033069
                         10       1    1hx4y             0.384000       0.099207
                         10       1    1hx4z             0.384000       0.099207
                         10       1    1hx3y2            0.384000       0.151541
                         10       1    1hx3yz            0.384000       0.262477
                         10       1    1hx3z2            0.384000       0.151541
                         10       1    1hx2y3            0.384000       0.151541
                         10       1    1hx2y2z           0.384000       0.338856
                         10       1    1hx2yz2           0.384000       0.338856
                         10       1    1hx2z3            0.384000       0.151541
                         10       1    1hxy4             0.384000       0.099207
                         10       1    1hxy3z            0.384000       0.262477
                         10       1    1hxy2z2           0.384000       0.338856
                         10       1    1hxyz3            0.384000       0.262477
                         10       1    1hxz4             0.384000       0.099207
                         10       1    1hy5              0.384000       0.033069
                         10       1    1hy4z             0.384000       0.099207
                         10       1    1hy3z2            0.384000       0.151541
                         10       1    1hy2z3            0.384000       0.151541
                         10       1    1hyz4             0.384000       0.099207
                         10       1    1hz5              0.384000       0.033069

                         11       1    1gx4              1.124000       1.534768
                                                         0.461000       0.000000
                         11       1    1gx3y             1.124000       4.060615
                                                         0.461000       0.000000
                         11       1    1gx3z             1.124000       4.060615
                                                         0.461000       0.000000
                         11       1    1gx2y2            1.124000       5.242231
                                                         0.461000       0.000000
                         11       1    1gx2yz            1.124000       9.079811
                                                         0.461000       0.000000
                         11       1    1gx2z2            1.124000       5.242231
                                                         0.461000       0.000000
                         11       1    1gxy3             1.124000       4.060615
                                                         0.461000       0.000000
                         11       1    1gxy2z            1.124000       9.079811
                                                         0.461000       0.000000
                         11       1    1gxyz2            1.124000       9.079811
                                                         0.461000       0.000000
                         11       1    1gxz3             1.124000       4.060615
                                                         0.461000       0.000000
                         11       1    1gy4              1.124000       1.534768
                                                         0.461000       0.000000
                         11       1    1gy3z             1.124000       4.060615
                                                         0.461000       0.000000
                         11       1    1gy2z2            1.124000       5.242231
                                                         0.461000       0.000000
                         11       1    1gyz3             1.124000       4.060615
                                                         0.461000       0.000000
                         11       1    1gz4              1.124000       1.534768
                                                         0.461000       0.000000

                         11       2    2gx4              1.124000       0.000000
                                                         0.461000       0.132316
                         11       2    2gx3y             1.124000       0.000000
                                                         0.461000       0.350076
                         11       2    2gx3z             1.124000       0.000000
                                                         0.461000       0.350076
                         11       2    2gx2y2            1.124000       0.000000
                                                         0.461000       0.451946
                         11       2    2gx2yz            1.124000       0.000000
                                                         0.461000       0.782793
                         11       2    2gx2z2            1.124000       0.000000
                                                         0.461000       0.451946
                         11       2    2gxy3             1.124000       0.000000
                                                         0.461000       0.350076
                         11       2    2gxy2z            1.124000       0.000000
                                                         0.461000       0.782793
                         11       2    2gxyz2            1.124000       0.000000
                                                         0.461000       0.782793
                         11       2    2gxz3             1.124000       0.000000
                                                         0.461000       0.350076
                         11       2    2gy4              1.124000       0.000000
                                                         0.461000       0.132316
                         11       2    2gy3z             1.124000       0.000000
                                                         0.461000       0.350076
                         11       2    2gy2z2            1.124000       0.000000
                                                         0.461000       0.451946
                         11       2    2gyz3             1.124000       0.000000
                                                         0.461000       0.350076
                         11       2    2gz4              1.124000       0.000000
                                                         0.461000       0.132316

                         12       1    1hx5              0.834000       0.411276
                         12       1    1hx4y             0.834000       1.233829
                         12       1    1hx4z             0.834000       1.233829
                         12       1    1hx3y2            0.834000       1.884705
                         12       1    1hx3yz            0.834000       3.264406
                         12       1    1hx3z2            0.834000       1.884705
                         12       1    1hx2y3            0.834000       1.884705
                         12       1    1hx2y2z           0.834000       4.214329
                         12       1    1hx2yz2           0.834000       4.214329
                         12       1    1hx2z3            0.834000       1.884705
                         12       1    1hxy4             0.834000       1.233829
                         12       1    1hxy3z            0.834000       3.264406
                         12       1    1hxy2z2           0.834000       4.214329
                         12       1    1hxyz3            0.834000       3.264406
                         12       1    1hxz4             0.834000       1.233829
                         12       1    1hy5              0.834000       0.411276
                         12       1    1hy4z             0.834000       1.233829
                         12       1    1hy3z2            0.834000       1.884705
                         12       1    1hy2z3            0.834000       1.884705
                         12       1    1hyz4             0.834000       1.233829
                         12       1    1hz5              0.834000       0.411276

     RI Auxiliary Basis Set                                    aug-cc-pV5Z-OPTRI

       Number of orbital shell sets:                                          22
       Number of orbital shells:                                              22
       Number of primitive Cartesian functions:                               22
       Number of Cartesian basis functions:                                  188
       Number of spherical basis functions:                                  122
       Norm type:                                                              2

       Normalised Cartesian orbitals:

                        Set   Shell   Orbital            Exponent    Coefficient

                          1       1    1px               0.074635       0.055606
                          1       1    1py               0.074635       0.055606
                          1       1    1pz               0.074635       0.055606

                          2       1    1gx4              0.103515       0.002176
                          2       1    1gx3y             0.103515       0.005758
                          2       1    1gx3z             0.103515       0.005758
                          2       1    1gx2y2            0.103515       0.007433
                          2       1    1gx2yz            0.103515       0.012874
                          2       1    1gx2z2            0.103515       0.007433
                          2       1    1gxy3             0.103515       0.005758
                          2       1    1gxy2z            0.103515       0.012874
                          2       1    1gxyz2            0.103515       0.012874
                          2       1    1gxz3             0.103515       0.005758
                          2       1    1gy4              0.103515       0.002176
                          2       1    1gy3z             0.103515       0.005758
                          2       1    1gy2z2            0.103515       0.007433
                          2       1    1gyz3             0.103515       0.005758
                          2       1    1gz4              0.103515       0.002176

                          3       1    1s                0.104872       0.131342

                          4       1    1px               0.184504       0.172364
                          4       1    1py               0.184504       0.172364
                          4       1    1pz               0.184504       0.172364

                          5       1    1hx5              0.256227       0.008879
                          5       1    1hx4y             0.256227       0.026638
                          5       1    1hx4z             0.256227       0.026638
                          5       1    1hx3y2            0.256227       0.040690
                          5       1    1hx3yz            0.256227       0.070477
                          5       1    1hx3z2            0.256227       0.040690
                          5       1    1hx2y3            0.256227       0.040690
                          5       1    1hx2y2z           0.256227       0.090985
                          5       1    1hx2yz2           0.256227       0.090985
                          5       1    1hx2z3            0.256227       0.040690
                          5       1    1hxy4             0.256227       0.026638
                          5       1    1hxy3z            0.256227       0.070477
                          5       1    1hxy2z2           0.256227       0.090985
                          5       1    1hxyz3            0.256227       0.070477
                          5       1    1hxz4             0.256227       0.026638
                          5       1    1hy5              0.256227       0.008879
                          5       1    1hy4z             0.256227       0.026638
                          5       1    1hy3z2            0.256227       0.040690
                          5       1    1hy2z3            0.256227       0.040690
                          5       1    1hyz4             0.256227       0.026638
                          5       1    1hz5              0.256227       0.008879

                          6       1    1s                0.272763       0.268998

                          7       1    1fx3              0.350042       0.138747
                          7       1    1fx2y             0.350042       0.310249
                          7       1    1fx2z             0.350042       0.310249
                          7       1    1fxy2             0.350042       0.310249
                          7       1    1fxyz             0.350042       0.537366
                          7       1    1fxz2             0.350042       0.310249
                          7       1    1fy3              0.350042       0.138747
                          7       1    1fy2z             0.350042       0.310249
                          7       1    1fyz2             0.350042       0.310249
                          7       1    1fz3              0.350042       0.138747

                          8       1    1px               0.437892       0.507749
                          8       1    1py               0.437892       0.507749
                          8       1    1pz               0.437892       0.507749

                          9       1    1dx2              0.474035       0.445736
                          9       1    1dxy              0.474035       0.772037
                          9       1    1dxz              0.474035       0.772037
                          9       1    1dy2              0.474035       0.445736
                          9       1    1dyz              0.474035       0.772037
                          9       1    1dz2              0.474035       0.445736

                         10       1    1gx4              0.692494       0.405116
                         10       1    1gx3y             0.692494       1.071836
                         10       1    1gx3z             0.692494       1.071836
                         10       1    1gx2y2            0.692494       1.383735
                         10       1    1gx2yz            0.692494       2.396699
                         10       1    1gx2z2            0.692494       1.383735
                         10       1    1gxy3             0.692494       1.071836
                         10       1    1gxy2z            0.692494       2.396699
                         10       1    1gxyz2            0.692494       2.396699
                         10       1    1gxz3             0.692494       1.071836
                         10       1    1gy4              0.692494       0.405116
                         10       1    1gy3z             0.692494       1.071836
                         10       1    1gy2z2            0.692494       1.383735
                         10       1    1gyz3             0.692494       1.071836
                         10       1    1gz4              0.692494       0.405116

                         11       1    1s                0.783985       0.593801

                         12       1    1fx3              0.808695       0.912999
                         12       1    1fx2y             0.808695       2.041527
                         12       1    1fx2z             0.808695       2.041527
                         12       1    1fxy2             0.808695       2.041527
                         12       1    1fxyz             0.808695       3.536029
                         12       1    1fxz2             0.808695       2.041527
                         12       1    1fy3              0.808695       0.912999
                         12       1    1fy2z             0.808695       2.041527
                         12       1    1fyz2             0.808695       2.041527
                         12       1    1fz3              0.808695       0.912999

                         13       1    1ix6              0.850725       0.243999
                         13       1    1ix5y             0.850725       0.809252
                         13       1    1ix5z             0.850725       0.809252
                         13       1    1ix4y2            0.850725       1.401665
                         13       1    1ix4yz            0.850725       2.427755
                         13       1    1ix4z2            0.850725       1.401665
                         13       1    1ix3y3            0.850725       1.658473
                         13       1    1ix3y2z           0.850725       3.708457
                         13       1    1ix3yz2           0.850725       3.708457
                         13       1    1ix3z3            0.850725       1.658473
                         13       1    1ix2y4            0.850725       1.401665
                         13       1    1ix2y3z           0.850725       3.708457
                         13       1    1ix2y2z2          0.850725       4.787598
                         13       1    1ix2yz3           0.850725       3.708457
                         13       1    1ix2z4            0.850725       1.401665
                         13       1    1ixy5             0.850725       0.809252
                         13       1    1ixy4z            0.850725       2.427755
                         13       1    1ixy3z2           0.850725       3.708457
                         13       1    1ixy2z3           0.850725       3.708457
                         13       1    1ixyz4            0.850725       2.427755
                         13       1    1ixz5             0.850725       0.809252
                         13       1    1iy6              0.850725       0.243999
                         13       1    1iy5z             0.850725       0.809252
                         13       1    1iy4z2            0.850725       1.401665
                         13       1    1iy3z3            0.850725       1.658473
                         13       1    1iy2z4            0.850725       1.401665
                         13       1    1iyz5             0.850725       0.809252
                         13       1    1iz6              0.850725       0.243999

                         14       1    1dx2              1.234289       2.378970
                         14       1    1dxy              1.234289       4.120497
                         14       1    1dxz              1.234289       4.120497
                         14       1    1dy2              1.234289       2.378970
                         14       1    1dyz              1.234289       4.120497
                         14       1    1dz2              1.234289       2.378970

                         15       1    1px               1.290632       1.960844
                         15       1    1py               1.290632       1.960844
                         15       1    1pz               1.290632       1.960844

                         16       1    1hx5              1.326235       1.857209
                         16       1    1hx4y             1.326235       5.571627
                         16       1    1hx4z             1.326235       5.571627
                         16       1    1hx3y2            1.326235       8.510800
                         16       1    1hx3yz            1.326235      14.741138
                         16       1    1hx3z2            1.326235       8.510800
                         16       1    1hx2y3            1.326235       8.510800
                         16       1    1hx2y2z           1.326235      19.030728
                         16       1    1hx2yz2           1.326235      19.030728
                         16       1    1hx2z3            1.326235       8.510800
                         16       1    1hxy4             1.326235       5.571627
                         16       1    1hxy3z            1.326235      14.741138
                         16       1    1hxy2z2           1.326235      19.030728
                         16       1    1hxyz3            1.326235      14.741138
                         16       1    1hxz4             1.326235       5.571627
                         16       1    1hy5              1.326235       1.857209
                         16       1    1hy4z             1.326235       5.571627
                         16       1    1hy3z2            1.326235       8.510800
                         16       1    1hy2z3            1.326235       8.510800
                         16       1    1hyz4             1.326235       5.571627
                         16       1    1hz5              1.326235       1.857209

                         17       1    1gx4              2.177959       9.463943
                         17       1    1gx3y             2.177959      25.039239
                         17       1    1gx3z             2.177959      25.039239
                         17       1    1gx2y2            2.177959      32.325518
                         17       1    1gx2yz            2.177959      55.989440
                         17       1    1gx2z2            2.177959      32.325518
                         17       1    1gxy3             2.177959      25.039239
                         17       1    1gxy2z            2.177959      55.989440
                         17       1    1gxyz2            2.177959      55.989440
                         17       1    1gxz3             2.177959      25.039239
                         17       1    1gy4              2.177959       9.463943
                         17       1    1gy3z             2.177959      25.039239
                         17       1    1gy2z2            2.177959      32.325518
                         17       1    1gyz3             2.177959      25.039239
                         17       1    1gz4              2.177959       9.463943

                         18       1    1px               2.884858       5.359147
                         18       1    1py               2.884858       5.359147
                         18       1    1pz               2.884858       5.359147

                         19       1    1s                3.031807       1.637519

                         20       1    1dx2              3.102728      11.938807
                         20       1    1dxy              3.102728      20.678621
                         20       1    1dxz              3.102728      20.678621
                         20       1    1dy2              3.102728      11.938807
                         20       1    1dyz              3.102728      20.678621
                         20       1    1dz2              3.102728      11.938807

                         21       1    1fx3              3.441814      23.753417
                         21       1    1fx2y             3.441814      53.114255
                         21       1    1fx2z             3.441814      53.114255
                         21       1    1fxy2             3.441814      53.114255
                         21       1    1fxyz             3.441814      91.996588
                         21       1    1fxz2             3.441814      53.114255
                         21       1    1fy3              3.441814      23.753417
                         21       1    1fy2z             3.441814      53.114255
                         21       1    1fyz2             3.441814      53.114255
                         21       1    1fz3              3.441814      23.753417

                         22       1    1dx2              4.809839      25.712121
                         22       1    1dxy              4.809839      44.534700
                         22       1    1dxz              4.809839      44.534700
                         22       1    1dy2              4.809839      25.712121
                         22       1    1dyz              4.809839      44.534700
                         22       1    1dz2              4.809839      25.712121

       Atomic covalent radius [Angstrom]:                                  0.820

       Atomic van der Waals radius [Angstrom]:                             1.920

     The atoms of this atomic kind are PAW atoms (GAPW):
       Hard Gaussian function radius:                                      1.512
       Rho0 radius:                                                        1.512
       Maximum GTO radius used for PAW projector construction:            24.566

     GAPW Soft Basis Set                                        aug-cc-pV5Z_soft

       Number of orbital shell sets:                                          12
       Number of orbital shells:                                              27
       Number of primitive Cartesian functions:                               26
       Number of Cartesian basis functions:                                  182
       Number of spherical basis functions:                                  127
       Norm type:                                                              2

       Normalised Cartesian orbitals:

                        Set   Shell   Orbital            Exponent    Coefficient

                          1       1    1px               0.015700       0.007922
                          1       1    1py               0.015700       0.007922
                          1       1    1pz               0.015700       0.007922

                          2       1    1s                0.026100       0.046280

                          3       1    1dx2              0.043100       0.006710
                          3       1    1dxy              0.043100       0.011623
                          3       1    1dxz              0.043100       0.011623
                          3       1    1dy2              0.043100       0.006710
                          3       1    1dyz              0.043100       0.011623
                          3       1    1dz2              0.043100       0.006710

                          4       1    1px               1.770000       0.000000
                                                         0.700800       0.913972
                                                         0.290100       0.000000
                                                         0.121100       0.000000
                                                         0.049730       0.000000
                          4       1    1py               1.770000       0.000000
                                                         0.700800       0.913972
                                                         0.290100       0.000000
                                                         0.121100       0.000000
                                                         0.049730       0.000000
                          4       1    1pz               1.770000       0.000000
                                                         0.700800       0.913972
                                                         0.290100       0.000000
                                                         0.121100       0.000000
                                                         0.049730       0.000000

                          4       2    2px               1.770000       0.000000
                                                         0.700800       0.000000
                                                         0.290100       0.303476
                                                         0.121100       0.000000
                                                         0.049730       0.000000
                          4       2    2py               1.770000       0.000000
                                                         0.700800       0.000000
                                                         0.290100       0.303476
                                                         0.121100       0.000000
                                                         0.049730       0.000000
                          4       2    2pz               1.770000       0.000000
                                                         0.700800       0.000000
                                                         0.290100       0.303476
                                                         0.121100       0.000000
                                                         0.049730       0.000000

                          4       3    3px               1.770000       0.268171
                                                         0.700800       0.204879
                                                         0.290100       0.112260
                                                         0.121100       0.038129
                                                         0.049730       0.004656
                          4       3    3py               1.770000       0.268171
                                                         0.700800       0.204879
                                                         0.290100       0.112260
                                                         0.121100       0.038129
                                                         0.049730       0.004656
                          4       3    3pz               1.770000       0.268171
[...]
 J. VandeVondele, M. Krack, J. Hutter.
 J. Chem. Phys. 152, 194103 (2020).
 CP2K: An electronic structure and molecular dynamics software package - 
 Quickstep: Efficient and accurate electronic structure calculations.
 https://doi.org/10.1063/5.0007045

 J. Wilhelm, D. Golze, L. Talirz, J. Hutter, C. A. Pignedoli.
 J. Phys. Chem. Lett. 9, 306-312 (2018).
 Toward GW calculations on thousands of atoms.
 https://doi.org/10.1021/acs.jpclett.7b02740

 J. Wilhelm, J. Hutter.
 Phys. Rev. B 95, 235123 (2017).
 Periodic GW calculations in the Gaussian and plane-waves scheme.
 https://doi.org/10.1103/PhysRevB.95.235123

 O. Schuett, P. Messmer, J. Hutter, J. VandeVondele.
 Electronic Structure Calculations on Graphics Processing Units, 173-190 (2016).
 GPU-Accelerated Sparse Matrix-Matrix Multiplication for Linear Scaling Density 
 Functional Theory.
 https://doi.org/10.1002/9781118670712.ch8

 J. Wilhelm, M. Del Ben, J. Hutter.
 J. Chem. Theory Comput. 12, 3623-3635 (2016).
 GW in the Gaussian and plane waves scheme with application to linear acenes.
 https://doi.org/10.1021/acs.jctc.6b00380

 M. Del Ben, O. Schuett, T. Wentz, P. Messmer, J. Hutter, J. VandeVondele.
 Comput. Phys. Commun. 187, 120-129 (2015).
 Enabling simulation at the fifth rung of DFT: Large scale RPA calculations with 
 excellent time to solution.
 https://doi.org/10.1016/j.cpc.2014.10.021

 J. Hutter, M. Iannuzzi, F. Schiffmann, J. VandeVondele.
 WIREs Comput Mol Sci. 4, 15-25 (2014).
 CP2K: atomistic simulations of condensed matter systems.
 https://doi.org/10.1002/wcms.1159

 U. Borstnik, J. VandeVondele, V. Weber, J. Hutter.
 Parallel Comput. 40, 47-58 (2014).
 Sparse matrix multiplication: The distributed block-compressed sparse row 
 library.
 https://doi.org/10.1016/j.parco.2014.03.012

 M. Del Ben, J. Hutter, J. VandeVondele.
 J. Chem. Theory Comput. 9, 2654-2671 (2013).
 Electron Correlation in the Condensed Phase from a Resolution of Identity 
 Approach Based on the Gaussian and Plane Waves Scheme.
 https://doi.org/10.1021/ct4002202

 M. Del Ben, J. Hutter, J. VandeVondele.
 J. Chem. Theory Comput. 8, 4177-4188 (2012).
 Second-Order Moller-Plesset Perturbation Theory in the Condensed Phase: An 
 Efficient and Massively Parallel Gaussian and Plane Waves Approach.
 https://doi.org/10.1021/ct300531w

 M. Guidon, J. Hutter, J. VandeVondele.
 J. Chem. Theory Comput. 5, 3010-3021 (2009).
 Robust Periodic Hartree-Fock Exchange for Large-Scale Simulations Using 
 Gaussian Basis Sets.
 https://doi.org/10.1021/ct900494g

 M. Guidon, F. Schiffmann, J. Hutter, J. VandeVondele.
 J. Chem. Phys. 128, 214104 (2008).
 Ab initio molecular dynamics using hybrid density functionals.
 https://doi.org/10.1063/1.2931945

 L. Genovese, T. Deutsch, S. Goedecker.
 J. Chem. Phys. 127, 054704 (2007).
 Efficient and accurate three-dimensional Poisson solver for surface problems.
 https://doi.org/10.1063/1.2754685

 J. VandeVondele, J. Hutter.
 J. Chem. Phys. 127, 114105 (2007).
 Gaussian basis sets for accurate calculations on molecular systems in gas and 
 condensed phases.
 https://doi.org/10.1063/1.2770708

 L. Genovese, T. Deutsch, A. Neelov, S. Goedecker, G. Beylkin.
 J. Chem. Phys. 125, 074105 (2006).
 Efficient solution of Poisson's equation with free boundary conditions.
 https://doi.org/10.1063/1.2335442

 M. Frigo, S. G. Johnson.
 Proc. IEEE 93, 216-231 (2005).
 The design and implementation of FFTW3.
 https://doi.org/10.1109/JPROC.2004.840301

 M. Krack, M. Parrinello.
 Phys. Chem. Chem. Phys. 2, 2105-2112 (2000).
 All-electron ab-initio molecular dynamics.
 https://doi.org/10.1039/b001167n

 G. Lippert, J. Hutter, M. Parrinello.
 Theor. Chem. Acc. 103, 124-140 (1999).
 The Gaussian and augmented-plane-wave density functional method for ab initio 
 molecular dynamics simulations.
 https://doi.org/10.1007/s002140050523

 J. P. Perdew, K. Burke, M. Ernzerhof.
 Phys. Rev. Lett. 77, 3865-3868 (1996).
 Generalized gradient approximation made simple.
 https://doi.org/10.1103/PhysRevLett.77.3865


 -------------------------------------------------------------------------------
 -                                                                             -
 -                                T I M I N G                                  -
 -                                                                             -
 -------------------------------------------------------------------------------
 SUBROUTINE                       CALLS  ASD         SELF TIME        TOTAL TIME
                                MAXIMUM       AVERAGE  MAXIMUM  AVERAGE  MAXIMUM
 CP2K                                 1  1.0    0.045    0.080  782.857  782.858
 qs_energies                          1  2.0    0.001    0.001  781.125  781.356
 scf_env_do_scf                       1  3.0    0.000    0.000  762.665  762.670
 scf_env_do_scf_inner_loop           72  4.0    0.002    0.005  762.665  762.669
 qs_ks_build_kohn_sham_matrix        73  7.0    0.011    0.012  707.001  707.081
 qs_ks_update_qs_env                 72  5.0    0.001    0.001  704.045  704.123
 rebuild_ks_matrix                   72  6.0    0.000    0.000  704.032  704.111
 hfx_ks_matrix                       73  8.0    0.003    0.004  506.501  506.809
 integrate_four_center               73  9.0    3.287    4.816  506.497  506.805
 mp_sync                            803  9.5  420.314  432.154  420.314  432.154
 integrate_four_center_main          73 10.0    7.155  287.193   10.298  431.932
 integrate_four_center_bin         5666 11.0    3.143  144.739    3.143  144.739
 fft_wrap_pw1pw2                   1524  9.9    0.033    0.041   87.426   88.984
 fft_wrap_pw1pw2_250               1086 11.1    3.742    4.170   84.568   86.186
 fft3d_ps                          1524 11.9   34.267   37.940   70.594   72.204
 calc_screening_functions             1 10.0   64.378   67.529   66.513   69.689
 pw_poisson_solve                    73  8.0    1.299    1.423   63.245   63.267
 qs_vxc_create                       73  8.0    0.001    0.001   51.642   51.643
 xc_vxc_pw_create                    72  9.0    0.898    1.012   51.641   51.642
 ps_wavelet_solve                    73  9.0   32.826   36.558   41.966   42.249
 xc_pw_derive                       432 11.0    0.005    0.006   37.984   38.997
 mp_alltoall_d54                     73 10.0    6.006   32.721    6.006   32.721
 qs_rho_update_rho_low               73  5.0    0.001    0.001   32.149   32.152
 calculate_rho_elec                  73  6.0    0.713    0.760   31.949   31.952
 mp_alltoall_z22v                  1524 13.9   28.086   31.223   28.086   31.223
 prepare_gapw_den                    73  8.0    0.002    0.002   29.435   29.642
 xc_pw_divergence                    72 10.0    0.003    0.003   25.942   26.958
 sum_up_and_integrate                73  8.0    0.001    0.001   26.189   26.892
 integrate_v_rspace                  73  9.0    0.002    0.002   26.022   26.809
 xc_rho_set_and_dset_create          72 10.0    0.637    0.799   24.260   25.460
 gspace_mixing                       71  5.0    0.694    0.739   25.279   25.279
 density_rs2pw                       73  7.0    0.005    0.005   22.969   24.299
 yz_to_x                            727 12.8    2.410    2.876   17.415   20.281
 mp_sum_d                          3378  6.6   18.751   19.981   18.751   19.981
 x_to_yz                            797 13.1    5.806    6.279   18.887   19.494
 broyden_mixing                      71  6.0   18.772   19.017   19.073   19.144
 mp2_main                             1  3.0    0.000    0.000   17.166   17.396
 calculate_rho_atom                 146  9.0    2.457   17.196    2.457   17.197
 mp_alltoall_d11v                  1360  9.4   12.671   16.483   12.671   16.483
 potential_pw2rs                     73 10.0    0.037    0.040   15.509   16.207
 calculate_vxc_atom                  73  8.0    0.036    0.792   16.096   16.097
 mp_sum_dv                         6646 10.2   14.940   15.389   14.940   15.389
 gaVxcgb_GC                         144  9.0    0.317   15.203    0.317   15.203
 transfer_rs2pw                     366  8.4    0.009    0.012   13.780   15.035
 mp_waitany                        9680 11.5   13.016   14.588   13.016   14.588
 mp2_gpw_main                         1  4.0    0.000    0.000   13.970   13.981
 grid_collocate_task_list            73  7.0    7.934   12.754    7.934   12.754
 rpa_ri_compute_en                    1  5.0    0.000    0.000   12.469   12.469
 rpa_num_int                          1  6.0    0.001    0.001   12.430   12.431
 transfer_pw2rs                     366 10.6    0.006    0.008   11.957   12.154
 compute_GW_self_energy             100  7.0    0.001    0.001   12.011   12.059
 transfer_rs2pw_250                 147 10.0    2.883    3.248   10.798   11.992
 compute_GW_self_energy_deep        100  8.0   10.186   10.218   11.907   11.954
 put_rho0_on_grid                    73  9.0    0.718    0.772   11.277   11.484
 rs_gather_matrices                  73 10.0    0.009    0.080    9.889   10.521
 grid_integrate_task_list            73 10.0    0.621   10.453    0.621   10.453
 transfer_pw2rs_250                 147 11.0    2.621    2.806    8.080    8.443
 integrate_vhg0_rspace               73  8.0    0.425    0.549    6.088    6.122
 pw_scatter_p                       797 12.1    5.721    5.807    5.721    5.807
 mp_alltoall_d45                     74 10.0    2.934    5.797    2.934    5.797
 xc_functional_eval                 360 10.9    0.001    0.002    4.825    5.772
 pbe_lda_eval                       360 11.9    4.825    5.771    4.825    5.771
 pw_gather_p                        727 11.8    4.799    5.463    4.799    5.463
 mp_sum_l                           971  6.1    3.217    5.093    3.217    5.093
 integrate_four_center_load          73 10.0    0.000    0.001    3.188    5.069
 hfx_load_balance                     1 11.0    0.000    0.000    3.188    5.069
 hfx_load_balance_range               1 12.0    0.000    0.003    3.179    5.061
 pw_derive                          651 11.3    4.199    4.406    4.199    4.406
 powell_optimize                1366431 11.0    3.394    3.492    3.394    3.492
 compute_vec_Sigma_x_minus_vxc_       1  4.0    0.000    0.000    2.976    2.976
 cp2k_distribution_to_z_slices       73  9.0    1.351    1.438    2.528    2.733
 pw_copy                           1090 10.6    2.483    2.650    2.483    2.650
 fft_wrap_pw1pw2_90                 146 10.5    0.108    0.132    2.290    2.576
 rs_grid_zero                       367 11.2    2.419    2.497    2.419    2.497
 mp_waitall_1                     22722 12.0    1.851    2.422    1.851    2.422
 transfer_pw2rs_90                   73 12.0    0.449    0.524    1.818    2.377
 pw_poisson_set                      74  8.9    0.003    0.003    2.326    2.349
 calc_pair_dist_radii                 1 10.0    0.716    0.725    1.976    2.008
 parallel_gemm_fm                   364  8.5    0.001    0.001    1.850    1.886
 parallel_gemm_fm_gemm              364  9.5    0.001    0.001    1.849    1.885
 cp_fm_gemm                         364 10.5    1.849    1.885    1.849    1.885
 transfer_pw2rs_30                   73 12.0    0.999    1.069    1.533    1.789
 Vh_1c_gg_integrals                  73  8.0    0.039    1.378    1.525    1.677
 mp_sum_dm                          515  7.6    1.111    1.663    1.111    1.663
 pw_axpy                            725  9.3    1.574    1.663    1.574    1.663
 qs_scf_new_mos                      72  5.0    0.001    0.001    1.639    1.656
 pw_copy_to_array                   727 11.8    1.433    1.594    1.433    1.594
 transfer_rs2pw_90                   73  9.0    0.406    0.480    1.453    1.589
 mp2_ri_gpw_compute_in                1  5.0    0.001    0.001    1.470    1.471
 mp2_ri_gpw_compute_in_loop           1  6.0    0.000    0.000    1.463    1.463
 contract_B_L                         4  7.0    0.003    0.003    1.007    1.389
 cp_fm_syevd                         78  7.0    0.001    0.001    1.366    1.370
 cp_fm_redistribute_end              78  8.0    0.672    1.308    0.677    1.312
 pw_integral_ab_c1d_c1d_gs           73  9.0    1.073    1.081    1.212    1.311
 mp_cart_create                     393 10.3    0.892    1.276    0.893    1.276
 eigensolver_symm                    73  6.0    0.002    0.002    1.272    1.274
 mp2_eri_3c_integrate                 1  7.0    0.002    0.002    0.415    1.272
 integrate_set_3c                  1092  8.0    0.382    1.190    0.413    1.269
 cp_fm_syevd_base                    78  8.0    0.632    1.268    0.632    1.268
 dbt_pgrid_create_expert             80 10.7    0.000    0.000    0.875    1.258
 pw_copy_from_array                 797 12.1    0.974    1.185    0.974    1.185
 transfer_rs2pw_30                   73  9.0    0.572    0.588    1.162    1.185
 pw_poisson_rebuild                  73  9.0    0.000    0.000    1.154    1.179
 ps_wavelet_create                    1 10.0    0.000    0.000    1.154    1.179
 RS_z_slice_distribution              1 11.0    0.992    1.088    1.154    1.179
 calculate_rho0_atom                146  9.0    0.892    0.955    0.892    0.955
 mp_irecv_dm3                      2640 11.5    0.380    0.910    0.380    0.910
 mp_sendrecv_dv                    6862 10.0    0.829    0.860    0.829    0.860
 create_qs_kind_set                   1  2.0    0.000    0.000    0.806    0.807
 read_qs_kind                         2  3.0    0.439    0.500    0.806    0.807
 pw_zero                            434 10.3    0.699    0.760    0.699    0.760
 mp_isend_dv                       9481 11.9    0.444    0.684    0.444    0.684
 init_scf_run                         1  3.0    0.000    0.000    0.679    0.680
 mp_isend_dm3                      2640 11.5    0.336    0.668    0.336    0.668
 scf_env_initial_rho_setup            1  4.0    0.000    0.000    0.654    0.654
 mp_isendrecv_dv                  13724 12.0    0.362    0.644    0.362    0.644
 transfer_pw2rs_10                   73 12.0    0.249    0.269    0.520    0.575
 qs_init_subsys                       1  2.0    0.008    0.011    0.571    0.572
 integrate_four_center_dist_KS       73 10.0    0.014    0.019    0.537    0.543
 integrate_four_center_getP          73 10.0    0.010    0.014    0.527    0.541
 qs_env_setup                         1  3.0    0.000    0.000    0.476    0.494
 qs_env_rebuild_pw_env                2  3.5    0.000    0.000    0.474    0.492
 pw_env_rebuild                       1  5.0    0.001    0.001    0.474    0.492
 qs_energies_init_hamiltonians        1  3.0    0.000    0.000    0.478    0.478
 build_core_hamiltonian_matrix        1  4.0    0.000    0.000    0.470    0.470
 overlap_condnum                      1  5.0    0.000    0.000    0.465    0.468
 fft_wrap_pw1pw2_30                 146 10.5    0.018    0.020    0.432    0.445
 pw_grid_setup                        4  6.0    0.000    0.000    0.423    0.441
 pw_grid_setup_internal               4  7.0    0.010    0.010    0.423    0.441
 mp_max_i                           584  2.9    0.273    0.424    0.273    0.424
 mp_sum_i                            19  9.5    0.231    0.403    0.231    0.403
 restraint_control                    1  2.0    0.000    0.000    0.230    0.402
 mp2_main_alloc_hfx                   1  4.0    0.172    0.402    0.172    0.402
 arnoldi_conjugate_gradient           5  6.0    0.009    0.011    0.397    0.398
 scale_and_distribute               146 10.0    0.362    0.384    0.362    0.384
 parser_read_line                 93207  4.0    0.032    0.034    0.367    0.374
 transfer_rs2pw_10                   73  9.0    0.118    0.126    0.358    0.369
 parser_read_line_low               103  5.0    0.024    0.149    0.334    0.343
 broadcast_input_information        103  6.0    0.072    0.082    0.310    0.323
 pw_grid_sort                         4  8.0    0.223    0.226    0.318    0.323
 dbcsr_sym_matrix_vector_mult      1274  7.0    0.020    0.023    0.163    0.271
 pw_scale                           289  9.5    0.188    0.247    0.188    0.247
 calculate_dm_sparse                 72  6.0    0.000    0.001    0.206    0.227
 cp_dbcsr_plus_fm_fm_t               72  7.0    0.001    0.001    0.206    0.224
 copy_dbcsr_to_fm                   103  6.5    0.002    0.002    0.198    0.210
 calculate_rho_atom_coeff            73  6.0    0.022    0.095    0.199    0.200
 update_ks_atom                      73  8.0    0.017    0.095    0.103    0.192
 dbcsr_multiply_generic             117  8.1    0.005    0.005    0.169    0.188
 rpa_num_int_RPA_matrix_operati     100  7.0    0.001    0.003    0.187    0.187
 start_bse_calculation                1  7.0    0.000    0.000    0.177    0.177
 dbcsr_desymmetrize_deep            105  7.5    0.003    0.006    0.141    0.152
 mixing_init                          1  5.0    0.146    0.150    0.150    0.151
 mp_bcast_i_src                     412  7.0    0.127    0.151    0.127    0.151
 scf_post_calculation_gpw             1  3.0    0.000    0.000    0.136    0.137
 write_available_results              1  4.0    0.000    0.000    0.136    0.137
 write_mo_free_results                1  5.0    0.013    0.014    0.136    0.137
 mp_irecv_dv                       9540 11.9    0.063    0.134    0.063    0.134
 dbcsr_complete_redistribute        251  8.4    0.013    0.020    0.126    0.130
 mp_bcast_dm                        292  9.0    0.087    0.127    0.087    0.127
 mp_bcast_am_src                    103  7.0    0.089    0.104    0.104    0.127
 mp_alltoall_i22                    356  9.1    0.112    0.125    0.112    0.125
 fft_wrap_pw1pw2_10                 146 10.5    0.004    0.004    0.103    0.123
 dbcsr_add_d                       1971  7.1    0.002    0.002    0.016    0.122
 dbcsr_add_anytype                 1971  8.1    0.002    0.018    0.014    0.120
 dbcsr_rep_row_to_rep_col_vec      1274  8.0    0.006    0.010    0.034    0.120
 calc_mat_Q                         100  8.0    0.000    0.000    0.116    0.119
 dbt_total                            8  8.0    0.000    0.000    0.117    0.117
 contract_S_to_Q                    100  9.0    0.001    0.001    0.106    0.109
 xc_pw_smooth                        72 10.0    0.000    0.000    0.075    0.102
 dbt_contract                         4  9.0    0.001    0.001    0.101    0.101
 sort_shells                          4  9.0    0.095    0.097    0.095    0.097
 cp_fm_cholesky_invert              101  8.0    0.093    0.097    0.093    0.097
 cp_fm_power                          2  7.5    0.001    0.001    0.096    0.096
 dbcsr_finalize                    3323 10.7    0.007    0.030    0.026    0.092
 diagonalize_C                        1  8.0    0.000    0.000    0.091    0.091
 vxc_of_r_new                       288  9.0    0.000    0.014    0.002    0.090
 make_m2s                           234  9.1    0.004    0.004    0.081    0.085
 rs_scatter_matrices                 73  7.0    0.001    0.006    0.080    0.083
 init_rho_atom                        1  3.0    0.001    0.001    0.069    0.082
 abc_contract                      1092  9.0    0.031    0.079    0.031    0.079
 dbcsr_sym_matrix_vector_mult_l    1274  8.0    0.007    0.075    0.011    0.079
 -------------------------------------------------------------------------------

 The number of warnings for this run is : 1
 
 -------------------------------------------------------------------------------
  **** **** ******  **  PROGRAM ENDED AT                 2025-03-19 01:36:49.757
 ***** ** ***  *** **   PROGRAM RAN ON                              i04r06c06s01
 **    ****   ******    PROGRAM RAN BY                                   di38fab
 ***** **    ** ** **   PROGRAM PROCESS ID                                406983
  **** **  *******  **  PROGRAM STOPPED IN /hppfs/scratch/04/di38fab/05_MOL/W4-1
                                           1+ALK/bh/aug-cc-pV5Z/GW+BSE
