 DBCSR| CPU Multiplication driver                                           BLAS (U)
 DBCSR| Multrec recursion limit                                              512 (U)
 DBCSR| Multiplication stack size                                           1000 (D)
 DBCSR| Maximum elements for images                                    UNLIMITED (U)
 DBCSR| Multiplicative factor virtual images                                   1 (U)
 DBCSR| Use multiplication densification                                       T (D)
 DBCSR| Multiplication size stacks                                             3 (U)
 DBCSR| Use memory pool for CPU allocation                                     F (U)
 DBCSR| Number of 3D layers                                               SINGLE (U)
 DBCSR| Use MPI memory allocation                                              F (U)
 DBCSR| Use RMA algorithm                                                      F (U)
 DBCSR| Use Communication thread                                               T (U)
 DBCSR| Communication thread load                                             75 (D)
 DBCSR| MPI: My process id                                                     0
 DBCSR| MPI: Number of processes                                              24
 DBCSR| OMP: Current number of threads                                         4
 DBCSR| OMP: Max number of threads                                             4
 DBCSR| Split modifier for TAS multiplication algorithm                  1.0E+00 (U)


  **** **** ******  **  PROGRAM STARTED AT               2025-03-16 14:56:48.417
 ***** ** ***  *** **   PROGRAM STARTED ON                          i04r03c05s08
 **    ****   ******    PROGRAM STARTED BY                               di38fab
 ***** **    ** ** **   PROGRAM PROCESS ID                               2521909
  **** **  *******  **  PROGRAM STARTED IN /hppfs/scratch/04/di38fab/05_MOL/W4-1
                                           1+ALK/o2/SZVSR/GW+BSE/1e-3

 CP2K| version string:                 CP2K version 2025.1 (Development Version)
 CP2K| source code revision number:                                  git:d2e611a
 CP2K| cp2kflags: omp libint fftw3 libxc parallel scalapack max_contr=4         
 CP2K| is freely available from                            https://www.cp2k.org/
 CP2K| Program compiled at                       Thu 06 Mar 2025 05:09:20 PM CET
 CP2K| Program compiled on                                               login02
 CP2K| Program compiled for                                        Supermuc-foss
 CP2K| Data directory path                  /hppfs/work/pn36zo/di38fab/cp2k/data
 CP2K| Input file name                                                    GW.inp

 GLOBAL| Force Environment number                                              1
 GLOBAL| Basis set file name            /hppfs/scratch/04/di38fab/04_TMD/BASIS_A
 GLOBAL| Potential file name            /hppfs/work/pn36zo/di38fab/cp2k/data/ALL
 GLOBAL| MM Potential file name                                     MM_POTENTIAL
 GLOBAL| Coordinate file name                                      __STD_INPUT__
 GLOBAL| Method name                                                        CP2K
 GLOBAL| Project name                                                       MoS2
 GLOBAL| Run type                                                         ENERGY
 GLOBAL| FFT library                                                       FFTW3
 GLOBAL| Diagonalization library                                       ScaLAPACK
 GLOBAL| DGEMM library                                                      BLAS
 GLOBAL| Orthonormality check for eigenvectors                          DISABLED
 GLOBAL| Matrix multiplication library                                 ScaLAPACK
 GLOBAL| All-to-all communication in single precision                          F
 GLOBAL| FFTs using library dependent lengths                                  F
 GLOBAL| Grid backend                                                       AUTO
 GLOBAL| Global print level                                               MEDIUM
 GLOBAL| MPI I/O enabled                                                       T
 GLOBAL| Total number of message passing processes                            24
 GLOBAL| Number of threads for this process                                    4
 GLOBAL| This output is from process                                           0
 GLOBAL| OpenMP stack size per thread (OMP_STACKSIZE)                    default
 GLOBAL| CPU model name             Intel(R) Xeon(R) Platinum 8174 CPU @ 3.10GHz

 MEMORY| system memory details [Kb]
 MEMORY|                        rank 0           min           max       average
 MEMORY| MemTotal             98436660      98436660      98436708      98436684
 MEMORY| MemFree              83826512      83826512      85939920      84883216
 MEMORY| Buffers                     0             0             0             0
 MEMORY| Cached                2395624       2237816       2395624       2316720
 MEMORY| Slab                  1240460        889340       1240460       1064900
 MEMORY| SReclaimable           268056        190780        268056        229418
 MEMORY| MemLikelyFree        86490192      86490192      88368516      87429354


 *** Fundamental physical constants (SI units) ***

 *** Literature: B. J. Mohr and B. N. Taylor,
 ***             CODATA recommended values of the fundamental physical
 ***             constants: 2006, Web Version 5.1
 ***             http://physics.nist.gov/constants

 Speed of light in vacuum [m/s]                             2.99792458000000E+08
 Magnetic constant or permeability of vacuum [N/A**2]       1.25663706143592E-06
 Electric constant or permittivity of vacuum [F/m]          8.85418781762039E-12
 Planck constant (h) [J*s]                                  6.62606896000000E-34
 Planck constant (h-bar) [J*s]                              1.05457162825177E-34
 Elementary charge [C]                                      1.60217648700000E-19
 Electron mass [kg]                                         9.10938215000000E-31
 Electron g factor [ ]                                     -2.00231930436220E+00
 Proton mass [kg]                                           1.67262163700000E-27
 Fine-structure constant                                    7.29735253760000E-03
 Rydberg constant [1/m]                                     1.09737315685270E+07
 Avogadro constant [1/mol]                                  6.02214179000000E+23
 Boltzmann constant [J/K]                                   1.38065040000000E-23
 Atomic mass unit [kg]                                      1.66053878200000E-27
 Bohr radius [m]                                            5.29177208590000E-11

 *** Conversion factors ***

 [u] -> [a.u.]                                              1.82288848426455E+03
 [Angstrom] -> [Bohr] = [a.u.]                              1.88972613288564E+00
 [a.u.] = [Bohr] -> [Angstrom]                              5.29177208590000E-01
 [a.u.] -> [s]                                              2.41888432650478E-17
 [a.u.] -> [fs]                                             2.41888432650478E-02
 [a.u.] -> [J]                                              4.35974393937059E-18
 [a.u.] -> [N]                                              8.23872205491840E-08
 [a.u.] -> [K]                                              3.15774647902944E+05
 [a.u.] -> [kJ/mol]                                         2.62549961709828E+03
 [a.u.] -> [kcal/mol]                                       6.27509468713739E+02
 [a.u.] -> [Pa]                                             2.94210107994716E+13
 [a.u.] -> [bar]                                            2.94210107994716E+08
 [a.u.] -> [atm]                                            2.90362800883016E+08
 [a.u.] -> [eV]                                             2.72113838565563E+01
 [a.u.] -> [Hz]                                             6.57968392072181E+15
 [a.u.] -> [1/cm] (wave numbers)                            2.19474631370540E+05
 [a.u./Bohr**2] -> [1/cm]                                   5.14048714338585E+03
 

 CELL_TOP| Volume [angstrom^3]:                                     27000.000000
 CELL_TOP| Vector a [angstrom    30.000     0.000     0.000   |a| =    30.000000
 CELL_TOP| Vector b [angstrom     0.000    30.000     0.000   |b| =    30.000000
 CELL_TOP| Vector c [angstrom     0.000     0.000    30.000   |c| =    30.000000
 CELL_TOP| Angle (b,c), alpha [degree]:                                90.000000
 CELL_TOP| Angle (a,c), beta  [degree]:                                90.000000
 CELL_TOP| Angle (a,b), gamma [degree]:                                90.000000
 CELL_TOP| Numerically orthorhombic:                                         YES
 CELL_TOP| Periodicity                                                      NONE

 GENERATE|  Preliminary Number of Bonds generated:                             0
 GENERATE|  Achieved consistency in connectivity generation.

 CELL| Volume [angstrom^3]:                                         27000.000000
 CELL| Vector a [angstrom]:      30.000     0.000     0.000   |a| =    30.000000
 CELL| Vector b [angstrom]:       0.000    30.000     0.000   |b| =    30.000000
 CELL| Vector c [angstrom]:       0.000     0.000    30.000   |c| =    30.000000
 CELL| Angle (b,c), alpha [degree]:                                    90.000000
 CELL| Angle (a,c), beta  [degree]:                                    90.000000
 CELL| Angle (a,b), gamma [degree]:                                    90.000000
 CELL| Numerically orthorhombic:                                             YES
 CELL| Periodicity                                                          NONE

 CELL_REF| Volume [angstrom^3]:                                     27000.000000
 CELL_REF| Vector a [angstrom    30.000     0.000     0.000   |a| =    30.000000
 CELL_REF| Vector b [angstrom     0.000    30.000     0.000   |b| =    30.000000
 CELL_REF| Vector c [angstrom     0.000     0.000    30.000   |c| =    30.000000
 CELL_REF| Angle (b,c), alpha [degree]:                                90.000000
 CELL_REF| Angle (a,c), beta  [degree]:                                90.000000
 CELL_REF| Angle (a,b), gamma [degree]:                                90.000000
 CELL_REF| Numerically orthorhombic:                                         YES
 CELL_REF| Periodicity                                                      NONE

 *******************************************************************************
 *******************************************************************************
 **                                                                           **
 **     #####                         ##              ##                      **
 **    ##   ##            ##          ##              ##                      **
 **   ##     ##                       ##            ######                    **
 **   ##     ##  ##   ##  ##   #####  ##  ##   ####   ##    #####    #####    **
 **   ##     ##  ##   ##  ##  ##      ## ##   ##      ##   ##   ##  ##   ##   **
 **   ##  ## ##  ##   ##  ##  ##      ####     ###    ##   ######   ######    **
 **    ##  ###   ##   ##  ##  ##      ## ##      ##   ##   ##       ##        **
 **     #######   #####   ##   #####  ##  ##  ####    ##    #####   ##        **
 **           ##                                                    ##        **
 **                                                                           **
 **                                                ... make the atoms dance   **
 **                                                                           **
 **            Copyright (C) by CP2K developers group (2000-2025)             **
 **                      J. Chem. Phys. 152, 194103 (2020)                    **
 **                                                                           **
 *******************************************************************************

 DFT| Spin restricted Kohn-Sham (RKS) calculation                            RKS
 DFT| Multiplicity                                                             1
 DFT| Number of spin states                                                    1
 DFT| Charge                                                                   0
 DFT| Self-interaction correction (SIC)                                       NO
 DFT| Cutoffs: density                                              1.000000E-10
 DFT|          gradient                                             1.000000E-10
 DFT|          tau                                                  1.000000E-10
 DFT|          cutoff_smoothing_range                               0.000000E+00
 DFT| XC density smoothing                                                  NONE
 DFT| XC derivatives                                                          PW

 FUNCTIONAL| PBE:
 FUNCTIONAL| J.P.Perdew, K.Burke, M.Ernzerhof, Phys. Rev. Letter, vol. 77, n 18,
 FUNCTIONAL|  pp. 3865-3868, (1996)sx=0.750sc=1.000{spin unpolarized}           


 QS| Method:                                                                GAPW
 QS| Density plane wave grid type                        NON-SPHERICAL FULLSPACE
 QS| Number of grid levels:                                                    4
 QS| Density cutoff [a.u.]:                                                250.0
 QS| Multi grid cutoff [a.u.]: 1) grid level                               250.0
 QS|                           2) grid level                                83.3
 QS|                           3) grid level                                27.8
 QS|                           4) grid level                                 9.3
 QS| Grid level progression factor:                                          3.0
 QS| Relative density cutoff [a.u.]:                                        50.0
 QS| Interaction thresholds: eps_pgf_orb:                                1.0E-12
 QS|                         eps_filter_matrix:                          0.0E+00
 QS|                         eps_core_charge:                            1.0E-14
 QS|                         eps_rho_gspace:                             1.0E-12
 QS|                         eps_rho_rspace:                             1.0E-12
 QS|                         eps_gvg_rspace:                             1.0E-06
 QS|                         eps_ppl:                                    1.0E-02
 QS|                         eps_ppnl:                                   1.0E-08
 QS| GAPW|      One center basis from orbital basis primitives
 QS| GAPW|                   eps_fit:                                    1.0E-04
 QS| GAPW|                   eps_iso:                                    1.0E-12
 QS| GAPW|                   eps_svd:                                    1.0E-08
 QS| GAPW|                   eps_cpc:                                    1.0E-12
 QS| GAPW|   atom-r-grid: quadrature:                                     GC_LOG
 QS| GAPW|      atom-s-grid:  max l :                                          4
 QS| GAPW|      max_l_rho0 :                                                   2


 ATOMIC KIND INFORMATION

  1. Atomic kind: O                                     Number of atoms:       2

     Orbital Basis Set                                      aug-SZV-MOLOPT-ae-SR

       Number of orbital shell sets:                                           2
       Number of orbital shells:                                               6
       Number of primitive Cartesian functions:                                7
       Number of Cartesian basis functions:                                   15
       Number of spherical basis functions:                                   14
       Norm type:                                                              2

       Normalised Cartesian orbitals:

                        Set   Shell   Orbital            Exponent    Coefficient

                          1       1    1s                0.162492       0.000000
                                                         0.380389       0.241686
                                                         1.169596       0.320234
                                                         5.033151      -0.239413

                          1       2    2s                0.162492       0.120425
                                                         0.380389       0.131001
                                                         1.169596      -0.000041
                                                         5.033151      -0.089217

                          1       3    2px               0.162492       0.000000
                                                         0.380389       0.166903
                                                         1.169596       1.053568
                                                         5.033151       1.675450
                          1       3    2py               0.162492       0.000000
                                                         0.380389       0.166903
                                                         1.169596       1.053568
                                                         5.033151       1.675450
                          1       3    2pz               0.162492       0.000000
                                                         0.380389       0.166903
                                                         1.169596       1.053568
                                                         5.033151       1.675450

                          1       4    3px               0.162492       0.001278
                                                         0.380389       0.422682
                                                         1.169596       0.000775
                                                         5.033151       0.003884
                          1       4    3py               0.162492       0.001278
                                                         0.380389       0.422682
                                                         1.169596       0.000775
                                                         5.033151       0.003884
                          1       4    3pz               0.162492       0.001278
                                                         0.380389       0.422682
                                                         1.169596       0.000775
                                                         5.033151       0.003884

                          1       5    3dx2              0.162492      -0.037898
                                                         0.380389       0.380180
                                                         1.169596       0.208664
                                                         5.033151       1.207157
                          1       5    3dxy              0.162492      -0.065641
                                                         0.380389       0.658491
                                                         1.169596       0.361417
                                                         5.033151       2.090858
                          1       5    3dxz              0.162492      -0.065641
                                                         0.380389       0.658491
                                                         1.169596       0.361417
                                                         5.033151       2.090858
                          1       5    3dy2              0.162492      -0.037898
                                                         0.380389       0.380180
                                                         1.169596       0.208664
                                                         5.033151       1.207157
                          1       5    3dyz              0.162492      -0.065641
                                                         0.380389       0.658491
                                                         1.169596       0.361417
                                                         5.033151       2.090858
                          1       5    3dz2              0.162492      -0.037898
                                                         0.380389       0.380180
                                                         1.169596       0.208664
                                                         5.033151       1.207157

                          2       1    1s              130.709321       4.251943
                                                        23.808866       4.112294
                                                         6.443608       1.281623

     RI Auxiliary Basis Set             RI_aug-SZV-MOLOPT-ae-SR_N_RI_034_s_p_d_f

       Number of orbital shell sets:                                          12
       Number of orbital shells:                                              12
       Number of primitive Cartesian functions:                               12
       Number of Cartesian basis functions:                                   39
       Number of spherical basis functions:                                   34
       Norm type:                                                              2

       Normalised Cartesian orbitals:

                        Set   Shell   Orbital            Exponent    Coefficient

                          1       1    1s                0.437626       0.383475

                          2       1   10dx2              0.833911       1.197758
                          2       1   10dxy              0.833911       2.074578
                          2       1   10dxz              0.833911       2.074578
                          2       1   10dy2              0.833911       1.197758
                          2       1   10dyz              0.833911       2.074578
                          2       1   10dz2              0.833911       1.197758

                          3       1    6px               0.900493       1.250376
                          3       1    6py               0.900493       1.250376
                          3       1    6pz               0.900493       1.250376

                          4       1   12fx3              1.229346       2.342726
                          4       1   12fx2y             1.229346       5.238494
                          4       1   12fx2z             1.229346       5.238494
                          4       1   12fxy2             1.229346       5.238494
                          4       1   12fxyz             1.229346       9.073337
                          4       1   12fxz2             1.229346       5.238494
                          4       1   12fy3              1.229346       2.342726
                          4       1   12fy2z             1.229346       5.238494
                          4       1   12fyz2             1.229346       5.238494
                          4       1   12fz3              1.229346       2.342726

                          5       1    7px               1.580726       2.526451
                          5       1    7py               1.580726       2.526451
                          5       1    7pz               1.580726       2.526451

                          6       1    2s                1.930028       1.167032

                          7       1   11dx2              3.355577      13.693108
                          7       1   11dxy              3.355577      23.717160
                          7       1   11dxz              3.355577      23.717160
                          7       1   11dy2              3.355577      13.693108
                          7       1   11dyz              3.355577      23.717160
                          7       1   11dz2              3.355577      13.693108

                          8       1    3s                7.045462       3.082068

                          9       1    8px               7.187234      16.774219
                          9       1    8py               7.187234      16.774219
                          9       1    8pz               7.187234      16.774219

                         10       1    9px              31.206613     105.135257
                         10       1    9py              31.206613     105.135257
                         10       1    9pz              31.206613     105.135257

                         11       1    4s               33.536295       9.932222

                         12       1    5s              158.844986      31.888950

       Atomic covalent radius [Angstrom]:                                  0.730

       Atomic van der Waals radius [Angstrom]:                             1.520

     The atoms of this atomic kind are PAW atoms (GAPW):
       Hard Gaussian function radius:                                      1.512
       Rho0 radius:                                                        1.512
       Maximum GTO radius used for PAW projector construction:            24.566

     GAPW Soft Basis Set                               aug-SZV-MOLOPT-ae-SR_soft

       Number of orbital shell sets:                                           2
       Number of orbital shells:                                               6
       Number of primitive Cartesian functions:                                3
       Number of Cartesian basis functions:                                   15
       Number of spherical basis functions:                                   14
       Norm type:                                                              2

       Normalised Cartesian orbitals:

                        Set   Shell   Orbital            Exponent    Coefficient

                          1       1    1s                0.162492       0.000000
                                                         0.380389       0.241686
                                                         1.169596       0.320234

                          1       2    2s                0.162492       0.120425
                                                         0.380389       0.131001
                                                         1.169596      -0.000041

                          1       3    2px               0.162492       0.000000
                                                         0.380389       0.166903
                                                         1.169596       1.053568
                          1       3    2py               0.162492       0.000000
                                                         0.380389       0.166903
                                                         1.169596       1.053568
                          1       3    2pz               0.162492       0.000000
                                                         0.380389       0.166903
                                                         1.169596       1.053568

                          1       4    3px               0.162492       0.001278
                                                         0.380389       0.422682
                                                         1.169596       0.000775
                          1       4    3py               0.162492       0.001278
                                                         0.380389       0.422682
                                                         1.169596       0.000775
                          1       4    3pz               0.162492       0.001278
                                                         0.380389       0.422682
                                                         1.169596       0.000775

                          1       5    3dx2              0.162492      -0.037898
                                                         0.380389       0.380180
                                                         1.169596       0.208664
                          1       5    3dxy              0.162492      -0.065641
                                                         0.380389       0.658491
                                                         1.169596       0.361417
                          1       5    3dxz              0.162492      -0.065641
                                                         0.380389       0.658491
                                                         1.169596       0.361417
                          1       5    3dy2              0.162492      -0.037898
                                                         0.380389       0.380180
                                                         1.169596       0.208664
                          1       5    3dyz              0.162492      -0.065641
                                                         0.380389       0.658491
                                                         1.169596       0.361417
                          1       5    3dz2              0.162492      -0.037898
                                                         0.380389       0.380180
                                                         1.169596       0.208664

                          2       1    1s         

     AE Potential information for                                            ALL

       Description:                                       All-electron potential
                                          Krack, Parrinello, PCCP 2, 2105 (2000)

       Gaussian exponent of the core charge distribution:               8.154466
       Electronic configuration (s p d ...):                           4   4   0


 MOLECULE KIND INFORMATION


 All atoms are their own molecule, skipping detailed information


 TOTAL NUMBERS AND MAXIMUM NUMBERS

  Total number of            - Atomic kinds:                                   1
                             - Atoms:                                          2
                             - Shell sets:                                     4
                             - Shells:                                        12
                             - Primitive Cartesian functions:                 14
                             - Cartesian basis functions:                     30
                             - Spherical basis functions:                     28

  Maximum angular momentum of the orbital basis functions:                     2


 MODULE QUICKSTEP: ATOMIC COORDINATES IN ANGSTROM

   Atom Kind Element         X             Y             Z       Z(eff)     Mass
      1    1 O     8     15.603900     15.000000     15.000000   8.0000  15.9994
      2    1 O     8     14.396100     15.000000     15.000000   8.0000  15.9994



 SCF PARAMETERS         Density guess:                                    ATOMIC
                        --------------------------------------------------------
                        max_scf:                                             500
                        max_scf_history:                                       0
                        max_diis:                                              4
                        --------------------------------------------------------
                        eps_scf:                                        1.00E-06
                        eps_scf_history:                                0.00E+00
                        eps_diis:                                       1.00E-01
                        eps_eigval:                                     1.00E-05
                        --------------------------------------------------------
                        level_shift [a.u.]:                             0.000000
                        added MOs                                        20    0
                        --------------------------------------------------------
                        Mixing method:                            BROYDEN_MIXING
                                                charge density mixing in g-space
                        --------------------------------------------------------
                        No outer SCF

 PW_GRID| Information for grid number                                          1
 PW_GRID| Grid distributed over                                    24 processors
 PW_GRID| Real space group dimensions                                    24    1
 PW_GRID| the grid is blocked:                                                NO
 PW_GRID| Cutoff [a.u.]                                                    250.0
 PW_GRID| spherical cutoff:                                                   NO
 PW_GRID|   Bounds   1           -202     202                Points:         405
 PW_GRID|   Bounds   2           -202     202                Points:         405
 PW_GRID|   Bounds   3           -202     202                Points:         405
 PW_GRID| Volume element (a.u.^3)  0.2743E-02     Volume (a.u.^3)    182205.0337
 PW_GRID| Grid span                                                    FULLSPACE
 PW_GRID|   Distribution                         Average         Max         Min
 PW_GRID|   G-Vectors                          2767921.9     2768175     2767770
 PW_GRID|   G-Rays                                6834.4        6835        6834
 PW_GRID|   Real Space Points                  2767921.9     2788425     2624400

 PW_GRID| Information for grid number                                          2
 PW_GRID| Number of the reference grid                                         1
 PW_GRID| Grid distributed over                                    24 processors
 PW_GRID| Real space group dimensions                                    24    1
 PW_GRID| the grid is blocked:                                                NO
 PW_GRID| Cutoff [a.u.]                                                     83.3
 PW_GRID| spherical cutoff:                                                   NO
 PW_GRID|   Bounds   1           -120     119                Points:         240
 PW_GRID|   Bounds   2           -120     119                Points:         240
 PW_GRID|   Bounds   3           -120     119                Points:         240
 PW_GRID| Volume element (a.u.^3)  0.1318E-01     Volume (a.u.^3)    182205.0337
 PW_GRID| Grid span                                                    FULLSPACE
 PW_GRID|   Distribution                         Average         Max         Min
 PW_GRID|   G-Vectors                           576000.0      576240      575760
 PW_GRID|   G-Rays                                2400.0        2401        2399
 PW_GRID|   Real Space Points                   576000.0      576000      576000

 PW_GRID| Information for grid number                                          3
 PW_GRID| Number of the reference grid                                         1
 PW_GRID| Grid distributed over                                    24 processors
 PW_GRID| Real space group dimensions                                    24    1
 PW_GRID| the grid is blocked:                                                NO
 PW_GRID| Cutoff [a.u.]                                                     27.8
 PW_GRID| spherical cutoff:                                                   NO
 PW_GRID|   Bounds   1            -67      67                Points:         135
 PW_GRID|   Bounds   2            -67      67                Points:         135
 PW_GRID|   Bounds   3            -67      67                Points:         135
 PW_GRID| Volume element (a.u.^3)  0.7406E-01     Volume (a.u.^3)    182205.0337
 PW_GRID| Grid span                                                    FULLSPACE
 PW_GRID|   Distribution                         Average         Max         Min
 PW_GRID|   G-Vectors                           102515.6      102735      102330
 PW_GRID|   G-Rays                                 759.4         761         758
 PW_GRID|   Real Space Points                   102515.6      109350       91125

 PW_GRID| Information for grid number                                          4
 PW_GRID| Number of the reference grid                                         1
 PW_GRID| Grid distributed over                                    24 processors
 PW_GRID| Real space group dimensions                                    24    1
 PW_GRID| the grid is blocked:                                                NO
 PW_GRID| Cutoff [a.u.]                                                      9.3
 PW_GRID| spherical cutoff:                                                   NO
 PW_GRID|   Bounds   1            -40      39                Points:          80
 PW_GRID|   Bounds   2            -40      39                Points:          80
 PW_GRID|   Bounds   3            -40      39                Points:          80
 PW_GRID| Volume element (a.u.^3)  0.3559         Volume (a.u.^3)    182205.0337
 PW_GRID| Grid span                                                    FULLSPACE
 PW_GRID|   Distribution                         Average         Max         Min
 PW_GRID|   G-Vectors                            21333.3       21360       21280
 PW_GRID|   G-Rays                                 266.7         267         266
 PW_GRID|   Real Space Points                    21333.3       25600       19200

 POISSON| Solver                                                         WAVELET
 POISSON| Wavelet| Scaling function                                           40
 POISSON| Periodicity                                                       NONE

 RS_GRID| Information for grid number                                          1
 RS_GRID|   Bounds   1           -202     202                Points:         405
 RS_GRID|   Bounds   2           -202     202                Points:         405
 RS_GRID|   Bounds   3           -202     202                Points:         405
 RS_GRID| Real space distribution over                                  2 groups
 RS_GRID| Real space distribution along direction                              1
 RS_GRID| Border size                                                         30
 RS_GRID| Real space distribution over                                  3 groups
 RS_GRID| Real space distribution along direction                              2
 RS_GRID| Border size                                                         30
 RS_GRID| Real space distribution over                                  4 groups
 RS_GRID| Real space distribution along direction                              3
 RS_GRID| Border size                                                         30
 RS_GRID|   Distribution                         Average         Max         Min
 RS_GRID|   Planes                                 262.5         263         262
 RS_GRID|   Distribution                         Average         Max         Min
 RS_GRID|   Planes                                 195.0         195         195
 RS_GRID|   Distribution                         Average         Max         Min
 RS_GRID|   Planes                                 161.2         162         161

 RS_GRID| Information for grid number                                          2
 RS_GRID|   Bounds   1           -120     119                Points:         240
 RS_GRID|   Bounds   2           -120     119                Points:         240
 RS_GRID|   Bounds   3           -120     119                Points:         240
 RS_GRID| Real space distribution over                                  2 groups
 RS_GRID| Real space distribution along direction                              1
 RS_GRID| Border size                                                         32
 RS_GRID| Real space distribution over                                  3 groups
 RS_GRID| Real space distribution along direction                              2
 RS_GRID| Border size                                                         32
 RS_GRID| Real space distribution over                                  4 groups
 RS_GRID| Real space distribution along direction                              3
 RS_GRID| Border size                                                         32
 RS_GRID|   Distribution                         Average         Max         Min
 RS_GRID|   Planes                                 184.0         184         184
 RS_GRID|   Distribution                         Average         Max         Min
 RS_GRID|   Planes                                 144.0         144         144
 RS_GRID|   Distribution                         Average         Max         Min
 RS_GRID|   Planes                                 124.0         124         124

 RS_GRID| Information for grid number                                          3
 RS_GRID|   Bounds   1            -67      67                Points:         135
 RS_GRID|   Bounds   2            -67      67                Points:         135
 RS_GRID|   Bounds   3            -67      67                Points:         135
 RS_GRID| Real space fully replicated
 RS_GRID| Group size                                                           1

 RS_GRID| Information for grid number                                          4
 RS_GRID|   Bounds   1            -40      39                Points:          80
 RS_GRID|   Bounds   2            -40      39                Points:          80
 RS_GRID|   Bounds   3            -40      39                Points:          80
 RS_GRID| Real space fully replicated
 RS_GRID| Group size                                                           1

  HFX_INFO| Replica ID:                                                        1
  HFX_INFO| FRACTION:                                               0.2500000000
  HFX_INFO| Interaction Potential:                                       COULOMB
  HFX_INFO| EPS_SCHWARZ:                                                 1.0E-10
  HFX_INFO| EPS_SCHWARZ_FORCES                                           1.0E-08
  HFX_INFO| EPS_STORAGE_SCALING:                                         1.0E+00
  HFX_INFO| NBINS:                                                            64
  HFX_INFO| BLOCK_SIZE:                                                        1
  HFX_INFO| Number of periodic shells considered:                           NONE
  HFX_INFO| Number of periodic cells considered:                            NONE

 
 RI-RPA| using GPW style
 

 OVERLAP MATRIX CONDITION NUMBER
 1-Norm Condition Number (Estimate)
   CN : |A|*|A^-1|:  4.125E+000 *  1.287E+002   = 5.311E+002  Log(1-CN):  2.7252
 1-Norm and 2-Norm Condition Numbers using Diagonalization
   CN : |A|*|A^-1|:  4.125E+000 *  1.289E+002   = 5.317E+002  Log(1-CN):  2.7257
   CN : max/min ev:  3.541E+000 /  9.772E-003   = 3.623E+002  Log(2-CN):  2.5591

 Number of electrons:                                                         16
 Number of occupied orbitals:                                                  8
 Number of molecular orbitals:                                                28

 Number of orbital functions:                                                 28
 Number of independent orbital functions:                                     28

 Extrapolation method: initial_guess

 Atomic guess: The first density matrix is obtained in terms of atomic orbitals
               and electronic configurations assigned to each atomic kind

 Guess for atomic kind: O

 Electronic structure
    Total number of core electrons                                          0.00
    Total number of valence electrons                                       8.00
    Total number of electrons                                               8.00
    Multiplicity                                                   not specified
    S      2.00  2.00
    P      4.00


 *******************************************************************************
                  Iteration          Convergence                     Energy [au]
 *******************************************************************************
                          1        0.599527                     -73.375601368339
                          2        0.408940                     -73.402965239786
                          3        0.467422E-03                 -73.427671829740
                          4        0.397273E-04                 -73.427671891487
                          5        0.331032E-07                 -73.427671891704

 Energy components [Hartree]           Total Energy ::          -73.427671891704
                                        Band Energy ::          -39.525441932717
                                     Kinetic Energy ::           72.007128165258
                                   Potential Energy ::         -145.434800056962
                                      Virial (-V/T) ::            2.019727820879
                                        Core Energy ::         -102.018515532458
                                          XC Energy ::           -7.787812391279
                                     Coulomb Energy ::           36.378656032034

 Orbital energies  State     L     Occupation   Energy[a.u.]          Energy[eV]

                       1     0          2.000     -18.561766         -505.091352
                       2     0          2.000      -0.788492          -21.455956

                       1     1          4.000      -0.206231           -5.611839


 Total Electron Density at R=0:                                       192.964800
 Re-scaling the density matrix to get the right number of electrons
                  # Electrons              Trace(P)               Scaling factor
                           16                16.000                        1.000


 SCF WAVEFUNCTION OPTIMIZATION

  Step     Update method      Time    Convergence         Total energy    Change
  ------------------------------------------------------------------------------

  HFX_MEM_INFO| Est. max. program size before HFX [MiB]:                    2097
  HFX_MEM_INFO| Number of cart. primitive ERI's calculated:             20436113
  HFX_MEM_INFO| Number of sph. ERI's calculated:                          230495
  HFX_MEM_INFO| Number of sph. ERI's stored in-core:                      230495
  HFX_MEM_INFO| Number of sph. ERI's stored on disk:                           0
  HFX_MEM_INFO| Number of sph. ERI's calculated on the fly:                    0
  HFX_MEM_INFO| Total memory consumption ERI's RAM [MiB]:                      2
  HFX_MEM_INFO| Whereof max-vals [MiB]:                                        1
  HFX_MEM_INFO| Total compression factor ERI's RAM:                         1.12
  HFX_MEM_INFO| Total memory consumption ERI's disk [MiB]:                     0
  HFX_MEM_INFO| Total compression factor ERI's disk:                        0.00
  HFX_MEM_INFO| Size of density/Fock matrix [MiB]:                             0
  HFX_MEM_INFO| Size of buffers [MiB]:                                         0
  HFX_MEM_INFO| Est. max. program size after HFX  [MiB]:                    2582

     1 NoMix/Diag. 0.10E+00    6.2     0.83242945      -148.3397653699 -1.48E+02
     2 Broy./Diag. 0.10E+00    4.6     0.02858270      -148.4143720127 -7.46E-02
     3 Broy./Diag. 0.10E+00    4.7     0.07625271      -148.2982182851  1.16E-01
     4 Broy./Diag. 0.10E+00    4.7     0.01046575      -148.2255400477  7.27E-02
     5 Broy./Diag. 0.10E+00    4.8     0.00275595      -148.2031466105  2.24E-02
     6 Broy./Diag. 0.10E+00    4.8     0.00693862      -148.2359229608 -3.28E-02
     7 Broy./Diag. 0.10E+00    5.0     0.00268049      -148.2327895348  3.13E-03
     8 Broy./Diag. 0.10E+00    5.0     0.00130328      -148.2224960834  1.03E-02
     9 Broy./Diag. 0.10E+00    5.1     0.00306834      -148.2075187960  1.50E-02
    10 Broy./Diag. 0.10E+00    5.3     0.00022418      -148.1973417636  1.02E-02
    11 Broy./Diag. 0.10E+00    5.2     0.00111692      -148.2006592366 -3.32E-03
    12 Broy./Diag. 0.10E+00    5.2     0.00036194      -148.1987552131  1.90E-03
    13 Broy./Diag. 0.10E+00    5.3     0.00064458      -148.1949419998  3.81E-03
    14 Broy./Diag. 0.10E+00    5.2     0.00060916      -148.1913650951  3.58E-03
    15 Broy./Diag. 0.10E+00    5.3     0.00012690      -148.1897030260  1.66E-03
    16 Broy./Diag. 0.10E+00    5.3     0.00018191      -148.1902532419 -5.50E-04
    17 Broy./Diag. 0.10E+00    5.2     0.00047218      -148.1910497597 -7.97E-04
    18 Broy./Diag. 0.10E+00    5.2     0.00017255      -148.1903263657  7.23E-04
    19 Broy./Diag. 0.10E+00    5.2     0.00015097      -148.1898818359  4.45E-04
    20 Broy./Diag. 0.10E+00    5.2     0.00017711      -148.1894135536  4.68E-04
    21 Broy./Diag. 0.10E+00    5.3     0.00003753      -148.1890418178  3.72E-04
    22 Broy./Diag. 0.10E+00    5.2     0.00004021      -148.1889696313  7.22E-05
    23 Broy./Diag. 0.10E+00    5.3     0.00003566      -148.1888695769  1.00E-04
    24 Broy./Diag. 0.10E+00    5.3     0.00005357      -148.1888077944  6.18E-05
    25 Broy./Diag. 0.10E+00    5.2     0.00005089      -148.1886935129  1.14E-04
    26 Broy./Diag. 0.10E+00    5.3     0.00005114      -148.1888883682 -1.95E-04
    27 Broy./Diag. 0.10E+00    5.3     0.00003972      -148.1890437459 -1.55E-04
    28 Broy./Diag. 0.10E+00    5.3     0.00004796      -148.1890798912 -3.61E-05
    29 Broy./Diag. 0.10E+00    5.3     0.00007481      -148.1890866482 -6.76E-06
    30 Broy./Diag. 0.10E+00    5.2     0.00010866      -148.1890738505  1.28E-05
    31 Broy./Diag. 0.10E+00    5.3     0.00016450      -148.1890397674  3.41E-05
    32 Broy./Diag. 0.10E+00    5.4     0.00027367      -148.1890309262  8.84E-06
    33 Broy./Diag. 0.10E+00    5.2     0.00045508      -148.1890291702  1.76E-06
    34 Broy./Diag. 0.10E+00    5.2     0.00075829      -148.1890260007  3.17E-06
    35 Broy./Diag. 0.10E+00    5.3     0.00126659      -148.1890254760  5.25E-07
    36 Broy./Diag. 0.10E+00    5.3     0.00211991      -148.1890234292  2.05E-06
    37 Broy./Diag. 0.10E+00    5.2     0.00354546      -148.1890221845  1.24E-06
    38 Broy./Diag. 0.10E+00    5.4     0.00592575      -148.1890332086 -1.10E-05
    39 Broy./Diag. 0.10E+00    5.2     0.00992191      -148.1890792564 -4.60E-05
    40 Broy./Diag. 0.10E+00    5.2     0.01663656      -148.1891026093 -2.34E-05
    41 Broy./Diag. 0.10E+00    5.2     0.02795635      -148.1891143968 -1.18E-05
    42 Broy./Diag. 0.10E+00    5.2     0.04674030      -148.1891599562 -4.56E-05
    43 Broy./Diag. 0.10E+00    5.3     0.07658695      -148.1892738699 -1.14E-04
    44 Broy./Diag. 0.10E+00    5.3     0.11767610      -148.1896457670 -3.72E-04
    45 Broy./Diag. 0.10E+00    5.3     0.15370397      -148.1905927208 -9.47E-04
    46 Broy./Diag. 0.10E+00    5.2     0.15150490      -148.1925770798 -1.98E-03
    47 Broy./Diag. 0.10E+00    5.2     0.19998371      -148.1957885160 -3.21E-03
    48 Broy./Diag. 0.10E+00    5.2     0.18931379      -148.1998044192 -4.02E-03
    49 Broy./Diag. 0.10E+00    5.2     0.14406785      -148.2038059330 -4.00E-03
    50 Broy./Diag. 0.10E+00    5.2     0.09691290      -148.2070942007 -3.29E-03
    51 Broy./Diag. 0.10E+00    5.3     0.06147970      -148.2093654765 -2.27E-03
    52 Broy./Diag. 0.10E+00    5.2     0.04980270      -148.2106679032 -1.30E-03
    53 Broy./Diag. 0.10E+00    5.3     0.03860744      -148.2112741625 -6.06E-04
    54 Broy./Diag. 0.10E+00    5.3     0.02915466      -148.2112694342  4.73E-06
    55 Broy./Diag. 0.10E+00    5.3     0.02294082      -148.2103945954  8.75E-04
    56 Broy./Diag. 0.10E+00    5.3     0.01795349      -148.2063969072  4.00E-03
    57 Broy./Diag. 0.10E+00    5.3     0.01516247      -148.2033237650  3.07E-03
    58 Broy./Diag. 0.10E+00    5.3     0.01423354      -148.1955971935  7.73E-03
    59 Broy./Diag. 0.10E+00    5.4     0.03432227      -148.2764523089 -8.09E-02
    60 Broy./Diag. 0.10E+00    5.4     0.05028198      -148.3843476700 -1.08E-01
    61 Broy./Diag. 0.10E+00    5.4     0.08989070      -148.4669346800 -8.26E-02
    62 Broy./Diag. 0.10E+00    5.3     0.12328839      -148.4118081190  5.51E-02
    63 Broy./Diag. 0.10E+00    5.4     0.15872335      -148.3349904897  7.68E-02
    64 Broy./Diag. 0.10E+00    5.3     0.08165757      -148.1853919166  1.50E-01
    65 Broy./Diag. 0.10E+00    5.3     0.05125918      -148.1544827874  3.09E-02
    66 Broy./Diag. 0.10E+00    5.3     0.05950350      -148.2372579420 -8.28E-02
    67 Broy./Diag. 0.10E+00    5.3     0.06023325      -148.2056681170  3.16E-02
    68 Broy./Diag. 0.10E+00    5.3     0.16934419      -148.2417024865 -3.60E-02
    69 Broy./Diag. 0.10E+00    5.3     0.09955768      -148.2986059246 -5.69E-02
    70 Broy./Diag. 0.10E+00    5.3     0.10790797      -148.2171330068  8.15E-02
    71 Broy./Diag. 0.10E+00    5.4     0.07328056      -148.1584752503  5.87E-02
    72 Broy./Diag. 0.10E+00    5.3     0.10745610      -148.1070313678  5.14E-02
    73 Broy./Diag. 0.10E+00    5.3     0.12886824      -148.0825450603  2.45E-02
    74 Broy./Diag. 0.10E+00    5.3     0.11485570      -148.0920547328 -9.51E-03
    75 Broy./Diag. 0.10E+00    5.3     0.12274809      -148.0587912896  3.33E-02
    76 Broy./Diag. 0.10E+00    5.3     0.10614632      -147.9670114571  9.18E-02
    77 Broy./Diag. 0.10E+00    5.3     0.06022942      -147.9011480791  6.59E-02
    78 Broy./Diag. 0.10E+00    5.3     0.04631800      -147.9625056715 -6.14E-02
    79 Broy./Diag. 0.10E+00    5.3     0.04095359      -147.9791058683 -1.66E-02
    80 Broy./Diag. 0.10E+00    5.3     0.10080145      -148.2189544391 -2.40E-01
    81 Broy./Diag. 0.10E+00    5.3     0.07574125      -148.2881628679 -6.92E-02
    82 Broy./Diag. 0.10E+00    5.3     0.02139417      -148.2407473847  4.74E-02
    83 Broy./Diag. 0.10E+00    5.2     0.04300768      -148.1942473180  4.65E-02
    84 Broy./Diag. 0.10E+00    5.2     0.09559635      -148.1888432849  5.40E-03
    85 Broy./Diag. 0.10E+00    5.3     0.16400460      -148.1872716955  1.57E-03
    86 Broy./Diag. 0.10E+00    5.2     0.22932356      -148.1814267834  5.84E-03
    87 Broy./Diag. 0.10E+00    5.2     0.19829770      -148.1938834187 -1.25E-02
    88 Broy./Diag. 0.10E+00    5.3     0.11178216      -148.2069101164 -1.30E-02
    89 Broy./Diag. 0.10E+00    5.3     0.07204005      -148.2097854181 -2.88E-03
    90 Broy./Diag. 0.10E+00    5.2     0.06192753      -148.2004326241  9.35E-03
    91 Broy./Diag. 0.10E+00    5.3     0.07007350      -148.2072330300 -6.80E-03
    92 Broy./Diag. 0.10E+00    5.2     0.05692408      -148.2018925832  5.34E-03
    93 Broy./Diag. 0.10E+00    5.2     0.04144142      -148.1957790809  6.11E-03
    94 Broy./Diag. 0.10E+00    5.2     0.03404214      -148.1926308449  3.15E-03
    95 Broy./Diag. 0.10E+00    5.2     0.01834108      -148.1887801829  3.85E-03
    96 Broy./Diag. 0.10E+00    5.2     0.00677743      -148.1855368190  3.24E-03
    97 Broy./Diag. 0.10E+00    5.4     0.22628414      -148.1478029718  3.77E-02
    98 Broy./Diag. 0.10E+00    5.3     0.22676341      -148.0925043675  5.53E-02
    99 Broy./Diag. 0.10E+00    5.3     0.15163727      -148.0897468162  2.76E-03
   100 Broy./Diag. 0.10E+00    5.3     0.02242751      -148.1156508475 -2.59E-02
   101 Broy./Diag. 0.10E+00    5.3     0.01773967      -148.1714674675 -5.58E-02
   102 Broy./Diag. 0.10E+00    5.3     0.03925103      -148.1579059868  1.36E-02
   103 Broy./Diag. 0.10E+00    5.3     0.15106463      -148.1935335357 -3.56E-02
   104 Broy./Diag. 0.10E+00    5.2     0.24444962      -148.2452188767 -5.17E-02
   105 Broy./Diag. 0.10E+00    5.3     0.14835641      -148.2644511134 -1.92E-02
   106 Broy./Diag. 0.10E+00    5.4     0.08146260      -148.2400818174  2.44E-02
   107 Broy./Diag. 0.10E+00    5.3     0.05147830      -148.2295248307  1.06E-02
   108 Broy./Diag. 0.10E+00    5.3     0.02321731      -148.2109099390  1.86E-02
   109 Broy./Diag. 0.10E+00    5.3     0.03400076      -148.1805541815  3.04E-02
   110 Broy./Diag. 0.10E+00    5.3     0.16144874      -148.1387952579  4.18E-02
   111 Broy./Diag. 0.10E+00    5.3     0.17860883      -148.1245539845  1.42E-02
   112 Broy./Diag. 0.10E+00    5.3     0.16935663      -148.1419669816 -1.74E-02
   113 Broy./Diag. 0.10E+00    5.3     0.08909002      -148.1715675299 -2.96E-02
   114 Broy./Diag. 0.10E+00    5.4     0.04572363      -148.2005453657 -2.90E-02
   115 Broy./Diag. 0.10E+00    5.3     0.05179928      -148.2332864440 -3.27E-02
   116 Broy./Diag. 0.10E+00    5.3     0.05307199      -148.2465640069 -1.33E-02
   117 Broy./Diag. 0.10E+00    5.3     0.02844954      -148.2269299675  1.96E-02
   118 Broy./Diag. 0.10E+00    5.4     0.03314288      -148.2177494597  9.18E-03
   119 Broy./Diag. 0.10E+00    5.3     0.00825455      -148.2300452175 -1.23E-02
   120 Broy./Diag. 0.10E+00    5.3     0.02312654      -148.2502454568 -2.02E-02
   121 Broy./Diag. 0.10E+00    5.3     0.05676799      -148.2548906121 -4.65E-03
   122 Broy./Diag. 0.10E+00    5.3     0.07028553      -148.2573259033 -2.44E-03
   123 Broy./Diag. 0.10E+00    5.3     0.18070746      -148.2301716613  2.72E-02
   124 Broy./Diag. 0.10E+00    5.2     0.22907521      -148.2408218524 -1.07E-02
   125 Broy./Diag. 0.10E+00    5.3     0.18555289      -148.2495545629 -8.73E-03
   126 Broy./Diag. 0.10E+00    5.2     0.11523552      -148.2525680551 -3.01E-03
   127 Broy./Diag. 0.10E+00    5.2     0.05781809      -148.2383498072  1.42E-02
   128 Broy./Diag. 0.10E+00    5.3     0.04208054      -148.2123498529  2.60E-02
   129 Broy./Diag. 0.10E+00    5.3     0.04245943      -148.1977532254  1.46E-02
   130 Broy./Diag. 0.10E+00    5.3     0.05411362      -148.1957589141  1.99E-03
   131 Broy./Diag. 0.10E+00    5.4     0.09358536      -148.1861920805  9.57E-03
   132 Broy./Diag. 0.10E+00    5.3     0.11591144      -148.1637737814  2.24E-02
   133 Broy./Diag. 0.10E+00    5.3     0.11438818      -148.1532005828  1.06E-02
   134 Broy./Diag. 0.10E+00    5.3     0.08750659      -148.1511770586  2.02E-03
   135 Broy./Diag. 0.10E+00    5.3     0.12383842      -148.1320088228  1.92E-02
   136 Broy./Diag. 0.10E+00    5.3     0.09295726      -148.1293173007  2.69E-03
   137 Broy./Diag. 0.10E+00    5.3     0.03849507      -148.1360594712 -6.74E-03
   138 Broy./Diag. 0.10E+00    5.3     0.03683441      -148.1527618090 -1.67E-02
   139 Broy./Diag. 0.10E+00    5.3     0.01002256      -148.1629047950 -1.01E-02
   140 Broy./Diag. 0.10E+00    5.3     0.00579543      -148.1724339853 -9.53E-03
   141 Broy./Diag. 0.10E+00    5.3     0.00576426      -148.1767778370 -4.34E-03
   142 Broy./Diag. 0.10E+00    5.3     0.00272023      -148.1814206867 -4.64E-03
   143 Broy./Diag. 0.10E+00    5.3     0.04109590      -148.1880175887 -6.60E-03
   144 Broy./Diag. 0.10E+00    5.3     0.07138947      -148.2011684107 -1.32E-02
   145 Broy./Diag. 0.10E+00    5.3     0.15418044      -148.2043380006 -3.17E-03
   146 Broy./Diag. 0.10E+00    5.3     0.20891251      -148.2114568185 -7.12E-03
   147 Broy./Diag. 0.10E+00    5.3     0.19168803      -148.2197343935 -8.28E-03
   148 Broy./Diag. 0.10E+00    5.3     0.13569429      -148.2173901359  2.34E-03
   149 Broy./Diag. 0.10E+00    5.3     0.13083345      -148.2151289417  2.26E-03
   150 Broy./Diag. 0.10E+00    5.3     0.11351670      -148.2167031083 -1.57E-03
   151 Broy./Diag. 0.10E+00    5.3     0.09137434      -148.2244453232 -7.74E-03
   152 Broy./Diag. 0.10E+00    5.3     0.07276331      -148.2287958904 -4.35E-03
   153 Broy./Diag. 0.10E+00    5.3     0.06927804      -148.2254180071  3.38E-03
   154 Broy./Diag. 0.10E+00    5.3     0.05406842      -148.2233910420  2.03E-03
   155 Broy./Diag. 0.10E+00    5.3     0.07169661      -148.2205625262  2.83E-03
   156 Broy./Diag. 0.10E+00    5.3     0.10439256      -148.2301057990 -9.54E-03
   157 Broy./Diag. 0.10E+00    5.3     0.15187426      -148.2239921203  6.11E-03
   158 Broy./Diag. 0.10E+00    5.3     0.13737314      -148.1787940864  4.52E-02
   159 Broy./Diag. 0.10E+00    5.3     0.06147184      -148.1794261609 -6.32E-04
   160 Broy./Diag. 0.10E+00    5.3     0.01448879      -148.2086371816 -2.92E-02
   161 Broy./Diag. 0.10E+00    5.3     0.00473853      -148.2264080932 -1.78E-02
   162 Broy./Diag. 0.10E+00    5.3     0.00136924      -148.2272378871 -8.30E-04
   163 Broy./Diag. 0.10E+00    5.3     0.00298341      -148.2108264835  1.64E-02
   164 Broy./Diag. 0.10E+00    5.3     0.00613723      -148.2043678535  6.46E-03
   165 Broy./Diag. 0.10E+00    5.3     0.00638303      -148.1995554422  4.81E-03
   166 Broy./Diag. 0.10E+00    5.3     0.00500267      -148.1935537373  6.00E-03
   167 Broy./Diag. 0.10E+00    5.3     0.00502559      -148.1919909314  1.56E-03
   168 Broy./Diag. 0.10E+00    5.3     0.01151448      -148.1919670790  2.39E-05
   169 Broy./Diag. 0.10E+00    5.4     0.00444972      -148.1882934874  3.67E-03
   170 Broy./Diag. 0.10E+00    5.3     0.00285624      -148.1902670299 -1.97E-03
   171 Broy./Diag. 0.10E+00    5.3     0.01441790      -148.1918522976 -1.59E-03
   172 Broy./Diag. 0.10E+00    5.3     0.01810170      -148.1939288117 -2.08E-03
   173 Broy./Diag. 0.10E+00    5.3     0.01315671      -148.1921939804  1.73E-03
   174 Broy./Diag. 0.10E+00    5.3     0.01999795      -148.1910923677  1.10E-03
   175 Broy./Diag. 0.10E+00    5.3     0.03265768      -148.1916601345 -5.68E-04
   176 Broy./Diag. 0.10E+00    5.3     0.05287739      -148.1918311872 -1.71E-04
   177 Broy./Diag. 0.10E+00    5.3     0.07667535      -148.1922167172 -3.86E-04
   178 Broy./Diag. 0.10E+00    5.3     0.10245963      -148.1920202463  1.96E-04
   179 Broy./Diag. 0.10E+00    5.3     0.14501245      -148.1926441357 -6.24E-04
   180 Broy./Diag. 0.10E+00    5.4     0.20625570      -148.1949022474 -2.26E-03
   181 Broy./Diag. 0.10E+00    5.3     0.21087434      -148.1982292617 -3.33E-03
   182 Broy./Diag. 0.10E+00    5.3     0.16136768      -148.2030846055 -4.86E-03
   183 Broy./Diag. 0.10E+00    5.3     0.10234183      -148.2064567643 -3.37E-03
   184 Broy./Diag. 0.10E+00    5.3     0.09226350      -148.2101416386 -3.68E-03
   185 Broy./Diag. 0.10E+00    5.3     0.07345757      -148.2123641616 -2.22E-03
   186 Broy./Diag. 0.10E+00    5.3     0.05841722      -148.2137341235 -1.37E-03
   187 Broy./Diag. 0.10E+00    5.3     0.05063697      -148.2136792366  5.49E-05
   188 Broy./Diag. 0.10E+00    5.3     0.05393555      -148.2130141042  6.65E-04
   189 Broy./Diag. 0.10E+00    5.3     0.07747059      -148.2114069943  1.61E-03
   190 Broy./Diag. 0.10E+00    5.3     0.11360999      -148.2041170315  7.29E-03
   191 Broy./Diag. 0.10E+00    5.3     0.13401771      -148.1925612017  1.16E-02
   192 Broy./Diag. 0.10E+00    5.3     0.10906610      -148.1779797078  1.46E-02
   193 Broy./Diag. 0.10E+00    5.4     0.07938559      -148.1853749649 -7.40E-03
   194 Broy./Diag. 0.10E+00    5.4     0.03923979      -148.2423608600 -5.70E-02
   195 Broy./Diag. 0.10E+00    5.3     0.01843245      -148.2496337777 -7.27E-03
   196 Broy./Diag. 0.10E+00    5.3     0.08670899      -148.2884922250 -3.89E-02
   197 Broy./Diag. 0.10E+00    5.3     0.10117349      -148.3152137017 -2.67E-02
   198 Broy./Diag. 0.10E+00    5.3     0.16493462      -148.3598941987 -4.47E-02
   199 Broy./Diag. 0.10E+00    5.4     0.23856606      -148.4011863615 -4.13E-02
   200 Broy./Diag. 0.10E+00    5.3     0.02849615      -148.4069298549 -5.74E-03
   201 Broy./Diag. 0.10E+00    5.3     0.01201508      -148.3789238142  2.80E-02
   202 Broy./Diag. 0.10E+00    5.3     0.06898280      -148.3693674491  9.56E-03
   203 Broy./Diag. 0.10E+00    5.3     0.19006763      -148.2822924737  8.71E-02
   204 Broy./Diag. 0.10E+00    5.3     0.14926399      -148.2660117979  1.63E-02
   205 Broy./Diag. 0.10E+00    5.3     0.08328840      -148.2775034640 -1.15E-02
   206 Broy./Diag. 0.10E+00    5.3     0.06351050      -148.2765258757  9.78E-04
   207 Broy./Diag. 0.10E+00    5.3     0.05391184      -148.2106469662  6.59E-02
   208 Broy./Diag. 0.10E+00    5.3     0.13232503      -148.2944935360 -8.38E-02
   209 Broy./Diag. 0.10E+00    5.3     0.22111113      -148.3179312514 -2.34E-02
   210 Broy./Diag. 0.10E+00    5.3     0.22544631      -148.3057403275  1.22E-02
   211 Broy./Diag. 0.10E+00    5.3     0.12736693      -148.2871074558  1.86E-02
   212 Broy./Diag. 0.10E+00    5.3     0.07772336      -148.2585251446  2.86E-02
   213 Broy./Diag. 0.10E+00    5.3     0.07981462      -148.2542203899  4.30E-03
   214 Broy./Diag. 0.10E+00    5.3     0.06088271      -148.2551356290 -9.15E-04
   215 Broy./Diag. 0.10E+00    5.3     0.08602326      -148.2518229410  3.31E-03
   216 Broy./Diag. 0.10E+00    5.3     0.09708665      -148.2510784200  7.45E-04
   217 Broy./Diag. 0.10E+00    5.4     0.08248790      -148.2559655689 -4.89E-03
   218 Broy./Diag. 0.10E+00    5.3     0.06313987      -148.2659880756 -1.00E-02
   219 Broy./Diag. 0.10E+00    5.3     0.08326042      -148.2498993448  1.61E-02
   220 Broy./Diag. 0.10E+00    5.3     0.07046376      -148.2261228992  2.38E-02
   221 Broy./Diag. 0.10E+00    5.3     0.02896731      -148.1901137586  3.60E-02
   222 Broy./Diag. 0.10E+00    5.3     0.10590829      -148.1807461984  9.37E-03
   223 Broy./Diag. 0.10E+00    5.3     0.17184830      -148.1831896228 -2.44E-03
   224 Broy./Diag. 0.10E+00    5.3     0.22621785      -148.1807302718  2.46E-03
   225 Broy./Diag. 0.10E+00    5.3     0.16895371      -148.1918130089 -1.11E-02
   226 Broy./Diag. 0.10E+00    5.3     0.12840369      -148.2072872556 -1.55E-02
   227 Broy./Diag. 0.10E+00    5.3     0.05238092      -148.2199257253 -1.26E-02
   228 Broy./Diag. 0.10E+00    5.3     0.01260857      -148.2253746568 -5.45E-03
   229 Broy./Diag. 0.10E+00    5.3     0.03156270      -148.2273638266 -1.99E-03
   230 Broy./Diag. 0.10E+00    5.3     0.06678377      -148.2237735845  3.59E-03
   231 Broy./Diag. 0.10E+00    5.3     0.08783868      -148.2186047019  5.17E-03
   232 Broy./Diag. 0.10E+00    5.3     0.07507175      -148.2166517569  1.95E-03
   233 Broy./Diag. 0.10E+00    5.3     0.06613882      -148.2107013926  5.95E-03
   234 Broy./Diag. 0.10E+00    5.3     0.04868777      -148.1970292237  1.37E-02
   235 Broy./Diag. 0.10E+00    5.3     0.02718080      -148.1832553636  1.38E-02
   236 Broy./Diag. 0.10E+00    5.3     0.01055230      -148.1830509352  2.04E-04
   237 Broy./Diag. 0.10E+00    5.3     0.06040911      -148.1767838380  6.27E-03
   238 Broy./Diag. 0.10E+00    5.3     0.12382504      -148.1801909871 -3.41E-03
   239 Broy./Diag. 0.10E+00    5.4     0.19004699      -148.1842615325 -4.07E-03
   240 Broy./Diag. 0.10E+00    5.3     0.22287348      -148.1856675068 -1.41E-03
   241 Broy./Diag. 0.10E+00    5.3     0.15900274      -148.1956591472 -9.99E-03
   242 Broy./Diag. 0.10E+00    5.4     0.15404942      -148.2066098812 -1.10E-02
   243 Broy./Diag. 0.10E+00    5.3     0.11558973      -148.2139629382 -7.35E-03
   244 Broy./Diag. 0.10E+00    5.3     0.09006661      -148.2137377169  2.25E-04
   245 Broy./Diag. 0.10E+00    5.3     0.07158801      -148.2150924258 -1.35E-03
   246 Broy./Diag. 0.10E+00    5.3     0.04693183      -148.2195985278 -4.51E-03
   247 Broy./Diag. 0.10E+00    5.3     0.01645250      -148.2243845920 -4.79E-03
   248 Broy./Diag. 0.10E+00    5.3     0.05874131      -148.2265875608 -2.20E-03
   249 Broy./Diag. 0.10E+00    5.3     0.20090587      -148.2083476462  1.82E-02
   250 Broy./Diag. 0.10E+00    5.3     0.33517739      -148.1803657922  2.80E-02
   251 Broy./Diag. 0.10E+00    5.3     0.17691289      -148.2130210231 -3.27E-02
   252 Broy./Diag. 0.10E+00    5.3     0.02158584      -148.2442687883 -3.12E-02
   253 Broy./Diag. 0.10E+00    5.3     0.03313581      -148.2630852824 -1.88E-02
   254 Broy./Diag. 0.10E+00    5.3     0.04482246      -148.2479544387  1.51E-02
   255 Broy./Diag. 0.10E+00    5.3     0.11584696      -148.2019455257  4.60E-02
   256 Broy./Diag. 0.10E+00    5.3     0.14968180      -148.1725518454  2.94E-02
   257 Broy./Diag. 0.10E+00    5.3     0.08005124      -148.1638983869  8.65E-03
   258 Broy./Diag. 0.10E+00    5.3     0.03125970      -148.1607191951  3.18E-03
   259 Broy./Diag. 0.10E+00    5.3     0.06236856      -148.1617811582 -1.06E-03
   260 Broy./Diag. 0.10E+00    5.3     0.11240745      -148.1585243885  3.26E-03
   261 Broy./Diag. 0.10E+00    5.3     0.12933739      -148.1591077236 -5.83E-04
   262 Broy./Diag. 0.10E+00    5.3     0.17198124      -148.1652331159 -6.13E-03
   263 Broy./Diag. 0.10E+00    5.3     0.12621674      -148.1766684119 -1.14E-02
   264 Broy./Diag. 0.10E+00    5.3     0.07415955      -148.1759841055  6.84E-04
   265 Broy./Diag. 0.10E+00    5.3     0.25158683      -148.1628235982  1.32E-02
   266 Broy./Diag. 0.10E+00    5.3     0.27619435      -148.1524559786  1.04E-02
   267 Broy./Diag. 0.10E+00    5.4     0.24271954      -148.1737964157 -2.13E-02
   268 Broy./Diag. 0.10E+00    5.3     0.15296507      -148.1923293735 -1.85E-02
   269 Broy./Diag. 0.10E+00    5.3     0.09760634      -148.1979078780 -5.58E-03
   270 Broy./Diag. 0.10E+00    5.4     0.06470643      -148.1955365209  2.37E-03
   271 Broy./Diag. 0.10E+00    5.3     0.04778809      -148.1935943245  1.94E-03
   272 Broy./Diag. 0.10E+00    5.3     0.01424890      -148.1988243551 -5.23E-03
   273 Broy./Diag. 0.10E+00    5.3     0.00680396      -148.2010471870 -2.22E-03
   274 Broy./Diag. 0.10E+00    5.3     0.00497835      -148.2006317998  4.15E-04
   275 Broy./Diag. 0.10E+00    5.3     0.00508054      -148.1972624635  3.37E-03
   276 Broy./Diag. 0.10E+00    5.3     0.01252918      -148.1941229657  3.14E-03
   277 Broy./Diag. 0.10E+00    5.3     0.00582079      -148.1886280450  5.49E-03
   278 Broy./Diag. 0.10E+00    5.3     0.01032197      -148.1876474282  9.81E-04
   279 Broy./Diag. 0.10E+00    5.3     0.00890810      -148.1873492831  2.98E-04
   280 Broy./Diag. 0.10E+00    5.3     0.00343001      -148.1855916495  1.76E-03
   281 Broy./Diag. 0.10E+00    5.3     0.00720675      -148.1838696041  1.72E-03
   282 Broy./Diag. 0.10E+00    5.3     0.00970159      -148.1830289585  8.41E-04
   283 Broy./Diag. 0.10E+00    5.3     0.02460757      -148.1824804648  5.48E-04
   284 Broy./Diag. 0.10E+00    5.3     0.02657891      -148.1881956771 -5.72E-03
   285 Broy./Diag. 0.10E+00    5.3     0.06800741      -148.1865214621  1.67E-03
   286 Broy./Diag. 0.10E+00    5.3     0.12549293      -148.1905279438 -4.01E-03
   287 Broy./Diag. 0.10E+00    5.3     0.19871808      -148.1920997391 -1.57E-03
   288 Broy./Diag. 0.10E+00    5.3     0.21554627      -148.1971715303 -5.07E-03
   289 Broy./Diag. 0.10E+00    5.3     0.16340590      -148.2037871592 -6.62E-03
   290 Broy./Diag. 0.10E+00    5.3     0.13303661      -148.2085160104 -4.73E-03
   291 Broy./Diag. 0.10E+00    5.3     0.11331290      -148.2129033916 -4.39E-03
   292 Broy./Diag. 0.10E+00    5.3     0.08970799      -148.2142114262 -1.31E-03
   293 Broy./Diag. 0.10E+00    5.3     0.10514416      -148.2158663884 -1.65E-03
   294 Broy./Diag. 0.10E+00    5.3     0.10166458      -148.2104372406  5.43E-03
   295 Broy./Diag. 0.10E+00    5.3     0.08726580      -148.2050003267  5.44E-03
   296 Broy./Diag. 0.10E+00    5.3     0.06893541      -148.2011098264  3.89E-03
   297 Broy./Diag. 0.10E+00    5.3     0.06072043      -148.1990402818  2.07E-03
   298 Broy./Diag. 0.10E+00    5.3     0.06768482      -148.1963573287  2.68E-03
   299 Broy./Diag. 0.10E+00    5.3     0.07238580      -148.1922007670  4.16E-03
   300 Broy./Diag. 0.10E+00    5.3     0.03476765      -148.2244744675 -3.23E-02
   301 Broy./Diag. 0.10E+00    5.3     0.01724312      -148.2270577789 -2.58E-03
   302 Broy./Diag. 0.10E+00    5.3     0.02851568      -148.2558869626 -2.88E-02
   303 Broy./Diag. 0.10E+00    5.3     0.20056435      -148.2151982345  4.07E-02
   304 Broy./Diag. 0.10E+00    5.3     0.16144242      -148.1532399823  6.20E-02
   305 Broy./Diag. 0.10E+00    5.3     0.06529167      -148.1977099037 -4.45E-02
   306 Broy./Diag. 0.10E+00    5.3     0.03255356      -148.2317510161 -3.40E-02
   307 Broy./Diag. 0.10E+00    5.3     0.01290791      -148.2328982157 -1.15E-03
   308 Broy./Diag. 0.10E+00    5.3     0.00871926      -148.2295522530  3.35E-03
   309 Broy./Diag. 0.10E+00    5.3     0.00801885      -148.2278435778  1.71E-03
   310 Broy./Diag. 0.10E+00    5.3     0.05140333      -148.2171527051  1.07E-02
   311 Broy./Diag. 0.10E+00    5.3     0.03422521      -148.2137267600  3.43E-03
   312 Broy./Diag. 0.10E+00    5.3     0.02768556      -148.2125940023  1.13E-03
   313 Broy./Diag. 0.10E+00    5.3     0.03987642      -148.2137838643 -1.19E-03
   314 Broy./Diag. 0.10E+00    5.3     0.08928098      -148.2107954948  2.99E-03
   315 Broy./Diag. 0.10E+00    5.4     0.15818970      -148.2133838743 -2.59E-03
   316 Broy./Diag. 0.10E+00    5.3     0.21115982      -148.2175029336 -4.12E-03
   317 Broy./Diag. 0.10E+00    5.3     0.19546633      -148.2228450650 -5.34E-03
   318 Broy./Diag. 0.10E+00    5.3     0.13449782      -148.2258903938 -3.05E-03
   319 Broy./Diag. 0.10E+00    5.3     0.11581728      -148.2266007223 -7.10E-04
   320 Broy./Diag. 0.10E+00    5.3     0.08832981      -148.2267658164 -1.65E-04
   321 Broy./Diag. 0.10E+00    5.3     0.11684165      -148.2288528386 -2.09E-03
   322 Broy./Diag. 0.10E+00    5.3     0.13536576      -148.2322789094 -3.43E-03
   323 Broy./Diag. 0.10E+00    5.3     0.11273802      -148.2336204994 -1.34E-03
   324 Broy./Diag. 0.10E+00    5.3     0.08597878      -148.2353530942 -1.73E-03
   325 Broy./Diag. 0.10E+00    5.3     0.07291647      -148.2369603629 -1.61E-03
   326 Broy./Diag. 0.10E+00    5.3     0.07548978      -148.2397174782 -2.76E-03
   327 Broy./Diag. 0.10E+00    5.3     0.08216600      -148.2523881806 -1.27E-02
   328 Broy./Diag. 0.10E+00    5.4     0.08243188      -148.2770746676 -2.47E-02
   329 Broy./Diag. 0.10E+00    5.3     0.04535358      -148.3172480699 -4.02E-02
   330 Broy./Diag. 0.10E+00    5.3     0.02670099      -148.2846150987  3.26E-02
   331 Broy./Diag. 0.10E+00    5.3     0.01093789      -148.2467642958  3.79E-02
   332 Broy./Diag. 0.10E+00    5.3     0.03320132      -148.2050039960  4.18E-02
   333 Broy./Diag. 0.10E+00    5.4     0.05793915      -148.1755221860  2.95E-02
   334 Broy./Diag. 0.10E+00    5.3     0.01343059      -148.1687801580  6.74E-03
   335 Broy./Diag. 0.10E+00    5.3     0.00483595      -148.1716435348 -2.86E-03
   336 Broy./Diag. 0.10E+00    5.3     0.00154957      -148.1736480616 -2.00E-03
   337 Broy./Diag. 0.10E+00    5.3     0.01364836      -148.1804046252 -6.76E-03
   338 Broy./Diag. 0.10E+00    5.3     0.00190660      -148.1916956391 -1.13E-02
   339 Broy./Diag. 0.10E+00    5.3     0.00272312      -148.1960453668 -4.35E-03
   340 Broy./Diag. 0.10E+00    5.4     0.01460100      -148.1922468607  3.80E-03
   341 Broy./Diag. 0.10E+00    5.3     0.00740167      -148.1874941511  4.75E-03
   342 Broy./Diag. 0.10E+00    5.3     0.00105471      -148.1868592904  6.35E-04
   343 Broy./Diag. 0.10E+00    5.3     0.00052755      -148.1871700381 -3.11E-04
   344 Broy./Diag. 0.10E+00    5.3     0.00336209      -148.1848982225  2.27E-03
   345 Broy./Diag. 0.10E+00    5.4     0.00153272      -148.1857882955 -8.90E-04
   346 Broy./Diag. 0.10E+00    5.3     0.00039576      -148.1862776743 -4.89E-04
   347 Broy./Diag. 0.10E+00    5.3     0.00100596      -148.1872621515 -9.84E-04
   348 Broy./Diag. 0.10E+00    5.3     0.00041065      -148.1887756955 -1.51E-03
   349 Broy./Diag. 0.10E+00    5.3     0.00195332      -148.1892169392 -4.41E-04
   350 Broy./Diag. 0.10E+00    5.3     0.00036361      -148.1895712535 -3.54E-04
   351 Broy./Diag. 0.10E+00    5.3     0.00080131      -148.1895821838 -1.09E-05
   352 Broy./Diag. 0.10E+00    5.3     0.00010801      -148.1893862865  1.96E-04
   353 Broy./Diag. 0.10E+00    5.3     0.00013849      -148.1894032083 -1.69E-05
   354 Broy./Diag. 0.10E+00    5.3     0.00008934      -148.1893817331  2.15E-05
   355 Broy./Diag. 0.10E+00    5.3     0.00018990      -148.1891638156  2.18E-04
   356 Broy./Diag. 0.10E+00    5.3     0.00041570      -148.1892627102 -9.89E-05
   357 Broy./Diag. 0.10E+00    5.3     0.00012221      -148.1893852863 -1.23E-04
   358 Broy./Diag. 0.10E+00    5.3     0.00015554      -148.1894788683 -9.36E-05
   359 Broy./Diag. 0.10E+00    5.3     0.00012881      -148.1893941283  8.47E-05
   360 Broy./Diag. 0.10E+00    5.3     0.00003670      -148.1892577727  1.36E-04
   361 Broy./Diag. 0.10E+00    5.3     0.00009624      -148.1890951948  1.63E-04
   362 Broy./Diag. 0.10E+00    5.3     0.00002080      -148.1890104049  8.48E-05
   363 Broy./Diag. 0.10E+00    5.3     0.00005941      -148.1889886949  2.17E-05
   364 Broy./Diag. 0.10E+00    5.3     0.00007803      -148.1890125878 -2.39E-05
   365 Broy./Diag. 0.10E+00    5.4     0.00003404      -148.1890410613 -2.85E-05
   366 Broy./Diag. 0.10E+00    5.3     0.00006428      -148.1890177161  2.33E-05
   367 Broy./Diag. 0.10E+00    5.3     0.00006181      -148.1889830612  3.47E-05
   368 Broy./Diag. 0.10E+00    5.3     0.00004136      -148.1889734685  9.59E-06
   369 Broy./Diag. 0.10E+00    5.3     0.00007239      -148.1889729380  5.31E-07
   370 Broy./Diag. 0.10E+00    5.3     0.00000928      -148.1889756353 -2.70E-06
   371 Broy./Diag. 0.10E+00    5.3     0.00004675      -148.1889848459 -9.21E-06
   372 Broy./Diag. 0.10E+00    5.3     0.00001128      -148.1889839700  8.76E-07
   373 Broy./Diag. 0.10E+00    5.3     0.00001497      -148.1889785910  5.38E-06
   374 Broy./Diag. 0.10E+00    5.2     0.00001049      -148.1889742195  4.37E-06
   375 Broy./Diag. 0.10E+00    5.3     0.00000703      -148.1889761975 -1.98E-06
   376 Broy./Diag. 0.10E+00    5.2     0.00002447      -148.1889805585 -4.36E-06
   377 Broy./Diag. 0.10E+00    5.3     0.00002250      -148.1889847011 -4.14E-06
   378 Broy./Diag. 0.10E+00    5.4     0.00000245      -148.1889856837 -9.83E-07
   379 Broy./Diag. 0.10E+00    5.3     0.00000806      -148.1889866792 -9.96E-07
   380 Broy./Diag. 0.10E+00    5.3     0.00001274      -148.1889837240  2.96E-06
   381 Broy./Diag. 0.10E+00    5.2     0.00000570      -148.1889798880  3.84E-06
   382 Broy./Diag. 0.10E+00    5.2     0.00000922      -148.1889800546 -1.67E-07
   383 Broy./Diag. 0.10E+00    5.3     0.00000882      -148.1889804306 -3.76E-07
   384 Broy./Diag. 0.10E+00    5.3     0.00001059      -148.1889815167 -1.09E-06
   385 Broy./Diag. 0.10E+00    5.2     0.00000106      -148.1889825172 -1.00E-06
   386 Broy./Diag. 0.10E+00    5.3     0.00000593      -148.1889824995  1.78E-08
   387 Broy./Diag. 0.10E+00    5.3     0.00000716      -148.1889818494  6.50E-07
   388 Broy./Diag. 0.10E+00    5.2     0.00000714      -148.1889800599  1.79E-06
   389 Broy./Diag. 0.10E+00    5.3     0.00000589      -148.1889794797  5.80E-07
   390 Broy./Diag. 0.10E+00    5.3     0.00001613      -148.1889788872  5.92E-07
   391 Broy./Diag. 0.10E+00    5.2     0.00001717      -148.1889777488  1.14E-06
   392 Broy./Diag. 0.10E+00    5.3     0.00002835      -148.1889777000  4.88E-08
   393 Broy./Diag. 0.10E+00    5.2     0.00004649      -148.1889778109 -1.11E-07
   394 Broy./Diag. 0.10E+00    5.3     0.00007640      -148.1889780777 -2.67E-07
   395 Broy./Diag. 0.10E+00    5.2     0.00012512      -148.1889784183 -3.41E-07
   396 Broy./Diag. 0.10E+00    5.4     0.00019133      -148.1889780119  4.06E-07
   397 Broy./Diag. 0.10E+00    5.3     0.00032073      -148.1889785322 -5.20E-07
   398 Broy./Diag. 0.10E+00    5.2     0.00053207      -148.1889792837 -7.52E-07
   399 Broy./Diag. 0.10E+00    5.2     0.00094497      -148.1889794103 -1.27E-07
   400 Broy./Diag. 0.10E+00    5.2     0.00160741      -148.1889768560  2.55E-06
   401 Broy./Diag. 0.10E+00    5.2     0.00271803      -148.1889747309  2.13E-06
   402 Broy./Diag. 0.10E+00    5.3     0.00456094      -148.1889739635  7.67E-07
   403 Broy./Diag. 0.10E+00    5.5     0.00759725      -148.1889768892 -2.93E-06
   404 Broy./Diag. 0.10E+00    5.3     0.01253589      -148.1889882665 -1.14E-05
   405 Broy./Diag. 0.10E+00    5.3     0.02012833      -148.1890041134 -1.58E-05
   406 Broy./Diag. 0.10E+00    5.2     0.03203404      -148.1890501118 -4.60E-05
   407 Broy./Diag. 0.10E+00    5.3     0.04910938      -148.1891613689 -1.11E-04
[...]

   425 Broy./Diag. 0.10E+00    5.2     0.20305288      -147.9147739276  1.49E-01

 *** WARNING in pw/ps_wavelet_methods.F:238 :: Density non-zero on the ***
 *** edges of the unit cell: wrong results in WAVELET solver           ***

   426 Broy./Diag. 0.10E+00    5.3     0.10251801      -148.0237536625 -1.09E-01
   427 Broy./Diag. 0.10E+00    5.3     0.09315248      -148.3335734459 -3.10E-01
   428 Broy./Diag. 0.10E+00    5.4     0.08512856      -148.2680191955  6.56E-02

 *** WARNING in pw/ps_wavelet_methods.F:238 :: Density non-zero on the ***
 *** edges of the unit cell: wrong results in WAVELET solver           ***

   429 Broy./Diag. 0.10E+00    5.2     0.07549899      -148.1912911553  7.67E-02

 *** WARNING in pw/ps_wavelet_methods.F:238 :: Density non-zero on the ***
 *** edges of the unit cell: wrong results in WAVELET solver           ***

   430 Broy./Diag. 0.10E+00    5.2     0.17725642      -148.1563652084  3.49E-02
   431 Broy./Diag. 0.10E+00    5.3     0.19288912      -148.1653548520 -8.99E-03
   432 Broy./Diag. 0.10E+00    5.2     0.13450455      -148.1995726698 -3.42E-02
   433 Broy./Diag. 0.10E+00    5.3     0.05806627      -148.2290479373 -2.95E-02

 *** WARNING in pw/ps_wavelet_methods.F:238 :: Density non-zero on the ***
 *** edges of the unit cell: wrong results in WAVELET solver           ***

   434 Broy./Diag. 0.10E+00    5.2     0.01421046      -148.2670172599 -3.80E-02
   435 Broy./Diag. 0.10E+00    5.3     0.11154176      -148.2612481268  5.77E-03
   436 Broy./Diag. 0.10E+00    5.3     0.04549189      -148.2509222133  1.03E-02
   437 Broy./Diag. 0.10E+00    5.3     0.02027457      -148.2548984395 -3.98E-03
   438 Broy./Diag. 0.10E+00    5.3     0.00857255      -148.2492089780  5.69E-03
   439 Broy./Diag. 0.10E+00    5.3     0.03314621      -148.2406300093  8.58E-03
   440 Broy./Diag. 0.10E+00    5.3     0.04145411      -148.2370232022  3.61E-03
   441 Broy./Diag. 0.10E+00    5.4     0.05519350      -148.2340801003  2.94E-03
   442 Broy./Diag. 0.10E+00    5.3     0.04111289      -148.2173089655  1.68E-02
   443 Broy./Diag. 0.10E+00    5.3     0.09620433      -148.1865674500  3.07E-02
   444 Broy./Diag. 0.10E+00    5.3     0.11706460      -148.1952134656 -8.65E-03
   445 Broy./Diag. 0.10E+00    5.3     0.11797658      -148.2041183636 -8.90E-03
   446 Broy./Diag. 0.10E+00    5.3     0.14548364      -148.2080477354 -3.93E-03
   447 Broy./Diag. 0.10E+00    5.3     0.16552428      -148.2137521109 -5.70E-03
   448 Broy./Diag. 0.10E+00    5.2     0.15417910      -148.2164291983 -2.68E-03
   449 Broy./Diag. 0.10E+00    5.3     0.15228488      -148.2139196306  2.51E-03
   450 Broy./Diag. 0.10E+00    5.3     0.12126509      -148.2075987980  6.32E-03
   451 Broy./Diag. 0.10E+00    5.3     0.07215984      -148.2047478900  2.85E-03
   452 Broy./Diag. 0.10E+00    5.2     0.04560385      -148.1941571544  1.06E-02
   453 Broy./Diag. 0.10E+00    5.3     0.07292763      -148.1990846415 -4.93E-03
   454 Broy./Diag. 0.10E+00    5.3     0.12939217      -148.2257142620 -2.66E-02
   455 Broy./Diag. 0.10E+00    5.3     0.17934660      -148.2423027222 -1.66E-02
   456 Broy./Diag. 0.10E+00    5.3     0.12777497      -148.2423957720 -9.30E-05
   457 Broy./Diag. 0.10E+00    5.2     0.04796468      -148.2262685897  1.61E-02
   458 Broy./Diag. 0.10E+00    5.3     0.01648572      -148.2091903990  1.71E-02
   459 Broy./Diag. 0.10E+00    5.3     0.00468045      -148.2010415916  8.15E-03
   460 Broy./Diag. 0.10E+00    5.3     0.00451866      -148.1957131023  5.33E-03
   461 Broy./Diag. 0.10E+00    5.2     0.00151820      -148.1937453333  1.97E-03
   462 Broy./Diag. 0.10E+00    5.2     0.00277853      -148.1929916428  7.54E-04
   463 Broy./Diag. 0.10E+00    5.3     0.00174970      -148.1911958785  1.80E-03
   464 Broy./Diag. 0.10E+00    5.3     0.00287805      -148.1910350158  1.61E-04
   465 Broy./Diag. 0.10E+00    5.2     0.00356440      -148.1910926958 -5.77E-05
   466 Broy./Diag. 0.10E+00    5.3     0.00458463      -148.1895406541  1.55E-03
   467 Broy./Diag. 0.10E+00    5.3     0.00052102      -148.1882267135  1.31E-03
   468 Broy./Diag. 0.10E+00    5.3     0.00183327      -148.1883638060 -1.37E-04
   469 Broy./Diag. 0.10E+00    5.3     0.00228256      -148.1884508018 -8.70E-05
   470 Broy./Diag. 0.10E+00    5.3     0.00269682      -148.1887330790 -2.82E-04
   471 Broy./Diag. 0.10E+00    5.3     0.00127903      -148.1889223207 -1.89E-04
   472 Broy./Diag. 0.10E+00    5.3     0.00048837      -148.1888904900  3.18E-05
   473 Broy./Diag. 0.10E+00    5.3     0.00108599      -148.1889921799 -1.02E-04
   474 Broy./Diag. 0.10E+00    5.3     0.00042051      -148.1891723938 -1.80E-04
   475 Broy./Diag. 0.10E+00    5.2     0.00022859      -148.1893365234 -1.64E-04
   476 Broy./Diag. 0.10E+00    5.3     0.00029380      -148.1894217236 -8.52E-05
   477 Broy./Diag. 0.10E+00    5.3     0.00088300      -148.1894799378 -5.82E-05
   478 Broy./Diag. 0.10E+00    5.2     0.00031595      -148.1895204570 -4.05E-05
   479 Broy./Diag. 0.10E+00    5.2     0.00036487      -148.1894216199  9.88E-05
   480 Broy./Diag. 0.10E+00    5.3     0.00035436      -148.1892942361  1.27E-04
   481 Broy./Diag. 0.10E+00    5.3     0.00042216      -148.1890995706  1.95E-04
   482 Broy./Diag. 0.10E+00    5.3     0.00022389      -148.1890691671  3.04E-05
   483 Broy./Diag. 0.10E+00    5.3     0.00028697      -148.1890236259  4.55E-05
   484 Broy./Diag. 0.10E+00    5.3     0.00017092      -148.1889916296  3.20E-05
   485 Broy./Diag. 0.10E+00    5.3     0.00025967      -148.1889862938  5.34E-06
   486 Broy./Diag. 0.10E+00    5.3     0.00004641      -148.1890163753 -3.01E-05
   487 Broy./Diag. 0.10E+00    5.3     0.00005879      -148.1890147987  1.58E-06
   488 Broy./Diag. 0.10E+00    5.3     0.00010274      -148.1890081258  6.67E-06
   489 Broy./Diag. 0.10E+00    5.3     0.00004162      -148.1889850367  2.31E-05
   490 Broy./Diag. 0.10E+00    5.3     0.00004020      -148.1889513322  3.37E-05
   491 Broy./Diag. 0.10E+00    5.4     0.00000859      -148.1889515045 -1.72E-07
   492 Broy./Diag. 0.10E+00    5.3     0.00002828      -148.1889549815 -3.48E-06
   493 Broy./Diag. 0.10E+00    5.3     0.00002626      -148.1889723036 -1.73E-05
   494 Broy./Diag. 0.10E+00    5.3     0.00002539      -148.1890019622 -2.97E-05
   495 Broy./Diag. 0.10E+00    5.3     0.00002296      -148.1890147410 -1.28E-05
   496 Broy./Diag. 0.10E+00    5.3     0.00001245      -148.1890240570 -9.32E-06
   497 Broy./Diag. 0.10E+00    5.3     0.00000293      -148.1890273092 -3.25E-06
   498 Broy./Diag. 0.10E+00    5.3     0.00002446      -148.1890162599  1.10E-05
   499 Broy./Diag. 0.10E+00    5.3     0.00000219      -148.1890010156  1.52E-05
   500 Broy./Diag. 0.10E+00    5.3     0.00001494      -148.1889933902  7.63E-06

  Leaving inner SCF loop after reaching   500 steps.


  Electronic density on regular grids:        -11.5557259528        4.4442740472
  Core density on regular grids:               16.0000000000        0.0000000000
  Hard and soft densities (Lebedev):          -32.6310147905      -28.1867389862
  Total Rho_soft + Rho1_hard - Rho1_soft      -16.0000017572
  Total charge density (r-space):              -0.0000017572
  Total Rho_soft + Rho0_soft (g-space):        -0.0000018868

  Overlap energy of the core charge distribution:               0.00000000200246
  Self energy of the core charge distribution:               -145.82024045573709
  Core Hamiltonian energy:                                    -12.76011749829348
  Hartree energy:                                              25.92392401073003
  Exchange-correlation energy:                                 -4.97589666536389
  Hartree-Fock Exchange energy:                                -4.07183312444623

  GAPW| Exc from hard and soft atomic rho1:                    -7.76384133607270
  GAPW| local Eh = 1 center integrals:                          1.27901167693573

  Total energy:                                              -148.18899339024514

 *******************************************************************************
 *   ___                                                                       *
 *  /   \                                                                      *
 * [ABORT]                                                                     *
 *  \___/     SCF run NOT converged. To continue the calculation regardless,   *
 *    |             please set the keyword IGNORE_CONVERGENCE_FAILURE.         *
 *  O/|                                                                        *
 * /| |                                                                        *
 * / \                                                            qs_scf.F:611 *
 *******************************************************************************


 ===== Routine Calling Stack ===== 

            3 scf_env_do_scf
            2 qs_energies
            1 CP2K

 *******************************************************************************
 *   ___                                                                       *
 *  /   \                                                                      *
 * [ABORT]                                                                     *
 *  \___/     SCF run NOT converged. To continue the calculation regardless,   *
 *    |             please set the keyword IGNORE_CONVERGENCE_FAILURE.         *
 *  O/|                                                                        *
 * /| |                                                                        *
 * / \                                                            qs_scf.F:611 *
 *******************************************************************************


 ===== Routine Calling Stack ===== 

            3 scf_env_do_scf
            2 qs_energies
            1 CP2K

 *******************************************************************************
 *   ___                                                                       *
 *  /   \                                                                      *
 * [ABORT]                                                                     *
 *  \___/     SCF run NOT converged. To continue the calculation regardless,   *
 *    |             please set the keyword IGNORE_CONVERGENCE_FAILURE.         *
 *  O/|                                                                        *
 * /| |                                                                        *
 * / \                                                            qs_scf.F:611 *
 *******************************************************************************


 ===== Routine Calling Stack ===== 

            3 scf_env_do_scf
            2 qs_energies
            1 CP2K

 *******************************************************************************
 *   ___                                                                       *
 *  /   \                                                                      *
 * [ABORT]                                                                     *
 *  \___/     SCF run NOT converged. To continue the calculation regardless,   *
 *    |             please set the keyword IGNORE_CONVERGENCE_FAILURE.         *
 *  O/|                                                                        *
 * /| |                                                                        *
 * / \                                                            qs_scf.F:611 *
 *******************************************************************************


 ===== Routine Calling Stack ===== 

            3 scf_env_do_scf
            2 qs_energies
            1 CP2K

 *******************************************************************************
 *   ___                                                                       *
 *  /   \                                                                      *
 * [ABORT]                                                                     *
 *  \___/     SCF run NOT converged. To continue the calculation regardless,   *
 *    |             please set the keyword IGNORE_CONVERGENCE_FAILURE.         *
 *  O/|                                                                        *
 * /| |                                                                        *
 * / \                                                            qs_scf.F:611 *
 *******************************************************************************


 ===== Routine Calling Stack ===== 

            3 scf_env_do_scf
            2 qs_energies
            1 CP2K

 *******************************************************************************
 *   ___                                                                       *
 *  /   \                                                                      *
 * [ABORT]                                                                     *
 *  \___/     SCF run NOT converged. To continue the calculation regardless,   *
 *    |             please set the keyword IGNORE_CONVERGENCE_FAILURE.         *
 *  O/|                                                                        *
 * /| |                                                                        *
 * / \                                                            qs_scf.F:611 *
 *******************************************************************************


 ===== Routine Calling Stack ===== 

            3 scf_env_do_scf
            2 qs_energies
            1 CP2K

 *******************************************************************************
 *   ___                                                                       *
 *  /   \                                                                      *
 * [ABORT]                                                                     *
 *  \___/     SCF run NOT converged. To continue the calculation regardless,   *
 *    |             please set the keyword IGNORE_CONVERGENCE_FAILURE.         *
 *  O/|                                                                        *
 * /| |                                                                        *
 * / \                                                            qs_scf.F:611 *
 *******************************************************************************


 ===== Routine Calling Stack ===== 

            3 scf_env_do_scf
            2 qs_energies
            1 CP2K

 *******************************************************************************
 *   ___                                                                       *
 *  /   \                                                                      *
 * [ABORT]                                                                     *
 *  \___/     SCF run NOT converged. To continue the calculation regardless,   *
 *    |             please set the keyword IGNORE_CONVERGENCE_FAILURE.         *
 *  O/|                                                                        *
 * /| |                                                                        *
 * / \                                                            qs_scf.F:611 *
 *******************************************************************************


 ===== Routine Calling Stack ===== 

            3 scf_env_do_scf
            2 qs_energies
            1 CP2K

 *******************************************************************************
 *   ___                                                                       *
 *  /   \                                                                      *
 * [ABORT]                                                                     *
 *  \___/     SCF run NOT converged. To continue the calculation regardless,   *
 *    |             please set the keyword IGNORE_CONVERGENCE_FAILURE.         *
 *  O/|                                                                        *
 * /| |                                                                        *
 * / \                                                            qs_scf.F:611 *
 *******************************************************************************


 ===== Routine Calling Stack ===== 

            3 scf_env_do_scf
            2 qs_energies
            1 CP2K

 *******************************************************************************
 *   ___                                                                       *
 *  /   \                                                                      *
 * [ABORT]                                                                     *
 *  \___/     SCF run NOT converged. To continue the calculation regardless,   *
 *    |             please set the keyword IGNORE_CONVERGENCE_FAILURE.         *
 *  O/|                                                                        *
 * /| |                                                                        *
 * / \                                                            qs_scf.F:611 *
 *******************************************************************************


 ===== Routine Calling Stack ===== 

            3 scf_env_do_scf
            2 qs_energies
            1 CP2K

 *******************************************************************************
 *   ___                                                                       *
 *  /   \                                                                      *
 * [ABORT]                                                                     *
 *  \___/     SCF run NOT converged. To continue the calculation regardless,   *
 *    |             please set the keyword IGNORE_CONVERGENCE_FAILURE.         *
 *  O/|                                                                        *
 * /| |                                                                        *
 * / \                                                            qs_scf.F:611 *
 *******************************************************************************


 ===== Routine Calling Stack ===== 

            3 scf_env_do_scf
            2 qs_energies
            1 CP2K

 *******************************************************************************
 *   ___                                                                       *
 *  /   \                                                                      *
 * [ABORT]                                                                     *
 *  \___/     SCF run NOT converged. To continue the calculation regardless,   *
 *    |             please set the keyword IGNORE_CONVERGENCE_FAILURE.         *
 *  O/|                                                                        *
 * /| |                                                                        *
 * / \                                                            qs_scf.F:611 *
 *******************************************************************************


 ===== Routine Calling Stack ===== 

            3 scf_env_do_scf
            2 qs_energies
            1 CP2K

 *******************************************************************************
 *   ___                                                                       *
 *  /   \                                                                      *
 * [ABORT]                                                                     *
 *  \___/     SCF run NOT converged. To continue the calculation regardless,   *
 *    |             please set the keyword IGNORE_CONVERGENCE_FAILURE.         *
 *  O/|                                                                        *
 * /| |                                                                        *
 * / \                                                            qs_scf.F:611 *
 *******************************************************************************


 ===== Routine Calling Stack ===== 

            3 scf_env_do_scf
            2 qs_energies
            1 CP2K
