 DBCSR| CPU Multiplication driver                                           BLAS (U)
 DBCSR| Multrec recursion limit                                              512 (U)
 DBCSR| Multiplication stack size                                           1000 (D)
 DBCSR| Maximum elements for images                                    UNLIMITED (U)
 DBCSR| Multiplicative factor virtual images                                   1 (U)
 DBCSR| Use multiplication densification                                       T (D)
 DBCSR| Multiplication size stacks                                             3 (U)
 DBCSR| Use memory pool for CPU allocation                                     F (U)
 DBCSR| Number of 3D layers                                               SINGLE (U)
 DBCSR| Use MPI memory allocation                                              F (U)
 DBCSR| Use RMA algorithm                                                      F (U)
 DBCSR| Use Communication thread                                               T (U)
 DBCSR| Communication thread load                                             75 (D)
 DBCSR| MPI: My process id                                                     0
 DBCSR| MPI: Number of processes                                              24
 DBCSR| OMP: Current number of threads                                         4
 DBCSR| OMP: Max number of threads                                             4
 DBCSR| Split modifier for TAS multiplication algorithm                  1.0E+00 (U)


  **** **** ******  **  PROGRAM STARTED AT               2025-03-11 06:45:42.978
 ***** ** ***  *** **   PROGRAM STARTED ON                          i03r09c04s02
 **    ****   ******    PROGRAM STARTED BY                               di38fab
 ***** **    ** ** **   PROGRAM PROCESS ID                                112500
  **** **  *******  **  PROGRAM STARTED IN /hppfs/scratch/04/di38fab/05_MOL/W4-1
                                           1+ALK/so/aug-cc-pVTZ

 CP2K| version string:                 CP2K version 2025.1 (Development Version)
 CP2K| source code revision number:                                  git:d2e611a
 CP2K| cp2kflags: omp libint fftw3 libxc parallel scalapack max_contr=4         
 CP2K| is freely available from                            https://www.cp2k.org/
 CP2K| Program compiled at                       Thu 06 Mar 2025 05:09:20 PM CET
 CP2K| Program compiled on                                               login02
 CP2K| Program compiled for                                        Supermuc-foss
 CP2K| Data directory path                  /hppfs/work/pn36zo/di38fab/cp2k/data
 CP2K| Input file name                                                    GW.inp

 GLOBAL| Force Environment number                                              1
 GLOBAL| Basis set file name            /hppfs/scratch/04/di38fab/04_TMD/BASIS_A
 GLOBAL| Potential file name            /hppfs/work/pn36zo/di38fab/cp2k/data/ALL
 GLOBAL| MM Potential file name                                     MM_POTENTIAL
 GLOBAL| Coordinate file name                                      __STD_INPUT__
 GLOBAL| Method name                                                        CP2K
 GLOBAL| Project name                                                       MoS2
 GLOBAL| Run type                                                         ENERGY
 GLOBAL| FFT library                                                       FFTW3
 GLOBAL| Diagonalization library                                       ScaLAPACK
 GLOBAL| DGEMM library                                                      BLAS
 GLOBAL| Orthonormality check for eigenvectors                          DISABLED
 GLOBAL| Matrix multiplication library                                 ScaLAPACK
 GLOBAL| All-to-all communication in single precision                          F
 GLOBAL| FFTs using library dependent lengths                                  F
 GLOBAL| Grid backend                                                       AUTO
 GLOBAL| Global print level                                               MEDIUM
 GLOBAL| MPI I/O enabled                                                       T
 GLOBAL| Total number of message passing processes                            24
 GLOBAL| Number of threads for this process                                    4
 GLOBAL| This output is from process                                           0
 GLOBAL| OpenMP stack size per thread (OMP_STACKSIZE)                    default
 GLOBAL| CPU model name             Intel(R) Xeon(R) Platinum 8174 CPU @ 3.10GHz

 MEMORY| system memory details [Kb]
 MEMORY|                        rank 0           min           max       average
 MEMORY| MemTotal             98436664      98436664      98436664      98436664
 MEMORY| MemFree              84034616      83770860      84034616      83902738
 MEMORY| Buffers                     0             0             0             0
 MEMORY| Cached                2430516       2430516       2671756       2551136
 MEMORY| Slab                  1244636       1244636       1247048       1245842
 MEMORY| SReclaimable           267916        267916        272524        270220
 MEMORY| MemLikelyFree        86733048      86715140      86733048      86724094


 *** Fundamental physical constants (SI units) ***

 *** Literature: B. J. Mohr and B. N. Taylor,
 ***             CODATA recommended values of the fundamental physical
 ***             constants: 2006, Web Version 5.1
 ***             http://physics.nist.gov/constants

 Speed of light in vacuum [m/s]                             2.99792458000000E+08
 Magnetic constant or permeability of vacuum [N/A**2]       1.25663706143592E-06
 Electric constant or permittivity of vacuum [F/m]          8.85418781762039E-12
 Planck constant (h) [J*s]                                  6.62606896000000E-34
 Planck constant (h-bar) [J*s]                              1.05457162825177E-34
 Elementary charge [C]                                      1.60217648700000E-19
 Electron mass [kg]                                         9.10938215000000E-31
 Electron g factor [ ]                                     -2.00231930436220E+00
 Proton mass [kg]                                           1.67262163700000E-27
 Fine-structure constant                                    7.29735253760000E-03
 Rydberg constant [1/m]                                     1.09737315685270E+07
 Avogadro constant [1/mol]                                  6.02214179000000E+23
 Boltzmann constant [J/K]                                   1.38065040000000E-23
 Atomic mass unit [kg]                                      1.66053878200000E-27
 Bohr radius [m]                                            5.29177208590000E-11

 *** Conversion factors ***

 [u] -> [a.u.]                                              1.82288848426455E+03
 [Angstrom] -> [Bohr] = [a.u.]                              1.88972613288564E+00
 [a.u.] = [Bohr] -> [Angstrom]                              5.29177208590000E-01
 [a.u.] -> [s]                                              2.41888432650478E-17
 [a.u.] -> [fs]                                             2.41888432650478E-02
 [a.u.] -> [J]                                              4.35974393937059E-18
 [a.u.] -> [N]                                              8.23872205491840E-08
 [a.u.] -> [K]                                              3.15774647902944E+05
 [a.u.] -> [kJ/mol]                                         2.62549961709828E+03
 [a.u.] -> [kcal/mol]                                       6.27509468713739E+02
 [a.u.] -> [Pa]                                             2.94210107994716E+13
 [a.u.] -> [bar]                                            2.94210107994716E+08
 [a.u.] -> [atm]                                            2.90362800883016E+08
 [a.u.] -> [eV]                                             2.72113838565563E+01
 [a.u.] -> [Hz]                                             6.57968392072181E+15
 [a.u.] -> [1/cm] (wave numbers)                            2.19474631370540E+05
 [a.u./Bohr**2] -> [1/cm]                                   5.14048714338585E+03
 

 CELL_TOP| Volume [angstrom^3]:                                     27000.000000
 CELL_TOP| Vector a [angstrom    30.000     0.000     0.000   |a| =    30.000000
 CELL_TOP| Vector b [angstrom     0.000    30.000     0.000   |b| =    30.000000
 CELL_TOP| Vector c [angstrom     0.000     0.000    30.000   |c| =    30.000000
 CELL_TOP| Angle (b,c), alpha [degree]:                                90.000000
 CELL_TOP| Angle (a,c), beta  [degree]:                                90.000000
 CELL_TOP| Angle (a,b), gamma [degree]:                                90.000000
 CELL_TOP| Numerically orthorhombic:                                         YES
 CELL_TOP| Periodicity                                                      NONE

 GENERATE|  Preliminary Number of Bonds generated:                             0
 GENERATE|  Achieved consistency in connectivity generation.

 CELL| Volume [angstrom^3]:                                         27000.000000
 CELL| Vector a [angstrom]:      30.000     0.000     0.000   |a| =    30.000000
 CELL| Vector b [angstrom]:       0.000    30.000     0.000   |b| =    30.000000
 CELL| Vector c [angstrom]:       0.000     0.000    30.000   |c| =    30.000000
 CELL| Angle (b,c), alpha [degree]:                                    90.000000
 CELL| Angle (a,c), beta  [degree]:                                    90.000000
 CELL| Angle (a,b), gamma [degree]:                                    90.000000
 CELL| Numerically orthorhombic:                                             YES
 CELL| Periodicity                                                          NONE

 CELL_REF| Volume [angstrom^3]:                                     27000.000000
 CELL_REF| Vector a [angstrom    30.000     0.000     0.000   |a| =    30.000000
 CELL_REF| Vector b [angstrom     0.000    30.000     0.000   |b| =    30.000000
 CELL_REF| Vector c [angstrom     0.000     0.000    30.000   |c| =    30.000000
 CELL_REF| Angle (b,c), alpha [degree]:                                90.000000
 CELL_REF| Angle (a,c), beta  [degree]:                                90.000000
 CELL_REF| Angle (a,b), gamma [degree]:                                90.000000
 CELL_REF| Numerically orthorhombic:                                         YES
 CELL_REF| Periodicity                                                      NONE

 *******************************************************************************
 *******************************************************************************
 **                                                                           **
 **     #####                         ##              ##                      **
 **    ##   ##            ##          ##              ##                      **
 **   ##     ##                       ##            ######                    **
 **   ##     ##  ##   ##  ##   #####  ##  ##   ####   ##    #####    #####    **
 **   ##     ##  ##   ##  ##  ##      ## ##   ##      ##   ##   ##  ##   ##   **
 **   ##  ## ##  ##   ##  ##  ##      ####     ###    ##   ######   ######    **
 **    ##  ###   ##   ##  ##  ##      ## ##      ##   ##   ##       ##        **
 **     #######   #####   ##   #####  ##  ##  ####    ##    #####   ##        **
 **           ##                                                    ##        **
 **                                                                           **
 **                                                ... make the atoms dance   **
 **                                                                           **
 **            Copyright (C) by CP2K developers group (2000-2025)             **
 **                      J. Chem. Phys. 152, 194103 (2020)                    **
 **                                                                           **
 *******************************************************************************

 DFT| Spin restricted Kohn-Sham (RKS) calculation                            RKS
 DFT| Multiplicity                                                             1
 DFT| Number of spin states                                                    1
 DFT| Charge                                                                   0
 DFT| Self-interaction correction (SIC)                                       NO
 DFT| Cutoffs: density                                              1.000000E-10
 DFT|          gradient                                             1.000000E-10
 DFT|          tau                                                  1.000000E-10
 DFT|          cutoff_smoothing_range                               0.000000E+00
 DFT| XC density smoothing                                                  NONE
 DFT| XC derivatives                                                          PW

 FUNCTIONAL| PBE:
 FUNCTIONAL| J.P.Perdew, K.Burke, M.Ernzerhof, Phys. Rev. Letter, vol. 77, n 18,
 FUNCTIONAL|  pp. 3865-3868, (1996)sx=0.750sc=1.000{spin unpolarized}           


 QS| Method:                                                                GAPW
 QS| Density plane wave grid type                        NON-SPHERICAL FULLSPACE
 QS| Number of grid levels:                                                    4
 QS| Density cutoff [a.u.]:                                                250.0
 QS| Multi grid cutoff [a.u.]: 1) grid level                               250.0
 QS|                           2) grid level                                83.3
 QS|                           3) grid level                                27.8
 QS|                           4) grid level                                 9.3
 QS| Grid level progression factor:                                          3.0
 QS| Relative density cutoff [a.u.]:                                        50.0
 QS| Interaction thresholds: eps_pgf_orb:                                1.0E-12
 QS|                         eps_filter_matrix:                          0.0E+00
 QS|                         eps_core_charge:                            1.0E-14
 QS|                         eps_rho_gspace:                             1.0E-12
 QS|                         eps_rho_rspace:                             1.0E-12
 QS|                         eps_gvg_rspace:                             1.0E-06
 QS|                         eps_ppl:                                    1.0E-02
 QS|                         eps_ppnl:                                   1.0E-08
 QS| GAPW|      One center basis from orbital basis primitives
 QS| GAPW|                   eps_fit:                                    1.0E-04
 QS| GAPW|                   eps_iso:                                    1.0E-12
 QS| GAPW|                   eps_svd:                                    1.0E-08
 QS| GAPW|                   eps_cpc:                                    1.0E-12
 QS| GAPW|   atom-r-grid: quadrature:                                     GC_LOG
 QS| GAPW|      atom-s-grid:  max l :                                          6
 QS| GAPW|      max_l_rho0 :                                                   2


 ATOMIC KIND INFORMATION

  1. Atomic kind: S                                     Number of atoms:       1

     Orbital Basis Set                                               aug-cc-pVTZ

       Number of orbital shell sets:                                           8
       Number of orbital shells:                                              16
       Number of primitive Cartesian functions:                               31
       Number of Cartesian basis functions:                                   59
       Number of spherical basis functions:                                   50
       Norm type:                                                              2

       Normalised Cartesian orbitals:

                        Set   Shell   Orbital            Exponent    Coefficient

                          1       1    1px               0.035100       0.021656
                          1       1    1py               0.035100       0.021656
                          1       1    1pz               0.035100       0.021656

                          2       1    1s                0.049700       0.075020

                          3       1    1dx2              0.101000       0.029783
                          3       1    1dxy              0.101000       0.051586
                          3       1    1dxz              0.101000       0.051586
                          3       1    1dy2              0.101000       0.029783
                          3       1    1dyz              0.101000       0.051586
                          3       1    1dz2              0.101000       0.029783

                          4       1    1px             574.400000       9.710615
                                                       135.800000      12.739798
                                                        43.190000      13.973617
                                                        15.870000      11.497714
                                                         6.208000       6.061822
                                                         2.483000       1.577000
                                                         0.868800       0.074001
                                                         0.322900      -0.001745
                                                         0.109800       0.000189
                          4       1    1py             574.400000       9.710615
                                                       135.800000      12.739798
                                                        43.190000      13.973617
                                                        15.870000      11.497714
                                                         6.208000       6.061822
                                                         2.483000       1.577000
                                                         0.868800       0.074001
                                                         0.322900      -0.001745
                                                         0.109800       0.000189
                          4       1    1pz             574.400000       9.710615
                                                       135.800000      12.739798
                                                        43.190000      13.973617
                                                        15.870000      11.497714
                                                         6.208000       6.061822
                                                         2.483000       1.577000
                                                         0.868800       0.074001
                                                         0.322900      -0.001745
                                                         0.109800       0.000189

                          4       2    2px             574.400000       0.000000
                                                       135.800000       0.000000
                                                        43.190000       0.000000
                                                        15.870000       0.000000
                                                         6.208000       0.000000
                                                         2.483000       0.000000
                                                         0.868800       1.195611
                                                         0.322900       0.000000
                                                         0.109800       0.000000
                          4       2    2py             574.400000       0.000000
                                                       135.800000       0.000000
                                                        43.190000       0.000000
                                                        15.870000       0.000000
                                                         6.208000       0.000000
                                                         2.483000       0.000000
                                                         0.868800       1.195611
                                                         0.322900       0.000000
                                                         0.109800       0.000000
                          4       2    2pz             574.400000       0.000000
                                                       135.800000       0.000000
                                                        43.190000       0.000000
                                                        15.870000       0.000000
                                                         6.208000       0.000000
                                                         2.483000       0.000000
                                                         0.868800       1.195611
                                                         0.322900       0.000000
                                                         0.109800       0.000000

                          4       3    3px             574.400000      -2.485542
                                                       135.800000      -3.263532
                                                        43.190000      -3.671694
                                                        15.870000      -3.093679
                                                         6.208000      -1.730561
                                                         2.483000      -0.430733
                                                         0.868800       0.272856
                                                         0.322900       0.197555
                                                         0.109800       0.033001
                          4       3    3py             574.400000      -2.485542
                                                       135.800000      -3.263532
                                                        43.190000      -3.671694
                                                        15.870000      -3.093679
                                                         6.208000      -1.730561
                                                         2.483000      -0.430733
                                                         0.868800       0.272856
                                                         0.322900       0.197555
                                                         0.109800       0.033001
                          4       3    3pz             574.400000      -2.485542
                                                       135.800000      -3.263532
                                                        43.190000      -3.671694
                                                        15.870000      -3.093679
                                                         6.208000      -1.730561
                                                         2.483000      -0.430733
                                                         0.868800       0.272856
                                                         0.322900       0.197555
                                                         0.109800       0.033001

                          4       4    4px             574.400000       0.000000
                                                       135.800000       0.000000
                                                        43.190000       0.000000
                                                        15.870000       0.000000
                                                         6.208000       0.000000
                                                         2.483000       0.000000
                                                         0.868800       0.000000
                                                         0.322900       0.000000
                                                         0.109800       0.090093
                          4       4    4py             574.400000       0.000000
                                                       135.800000       0.000000
                                                        43.190000       0.000000
                                                        15.870000       0.000000
                                                         6.208000       0.000000
                                                         2.483000       0.000000
                                                         0.868800       0.000000
                                                         0.322900       0.000000
                                                         0.109800       0.090093
                          4       4    4pz             574.400000       0.000000
                                                       135.800000       0.000000
                                                        43.190000       0.000000
                                                        15.870000       0.000000
                                                         6.208000       0.000000
                                                         2.483000       0.000000
                                                         0.868800       0.000000
                                                         0.322900       0.000000
                                                         0.109800       0.090093

                          5       1    1s           374100.000000       0.584471
                                                     56050.000000       1.092634
                                                     12760.000000       1.888412
                                                      3615.000000       3.054422
                                                      1183.000000       4.616580
                                                       428.800000       6.357788
                                                       167.800000       7.430780
                                                        69.470000       6.420754
                                                        29.840000       2.994663
                                                        12.720000       0.406611
                                                         5.244000       0.001089
                                                         2.219000       0.002136
                                                         0.776700      -0.000367
                                                         0.349000       0.000098
                                                         0.132200      -0.000013

                          5       2    2s           374100.000000      -0.161536
                                                     56050.000000      -0.301676
                                                     12760.000000      -0.523304
                                                      3615.000000      -0.848519
                                                      1183.000000      -1.306391
                                                       428.800000      -1.860594
                                                       167.800000      -2.392483
                                                        69.470000      -2.511395
                                                        29.840000      -1.775734
                                                        12.720000       0.039324
                                                         5.244000       1.275888
                                                         2.219000       0.702539
                                                         0.776700       0.040594
                                                         0.349000      -0.002971
                                                         0.132200       0.000354

                          5       3    3s           374100.000000       0.000000
                                                     56050.000000       0.000000
                                                     12760.000000       0.000000
                                                      3615.000000       0.000000
                                                      1183.000000       0.000000
                                                       428.800000       0.000000
                                                       167.800000       0.000000
                                                        69.470000       0.000000
                                                        29.840000       0.000000
                                                        12.720000       0.000000
                                                         5.244000       0.000000
                                                         2.219000       0.000000
                                                         0.776700       0.589658
                                                         0.349000       0.000000
                                                         0.132200       0.000000

                          5       4    4s           374100.000000       0.046904
                                                     56050.000000       0.087529
                                                     12760.000000       0.152027
                                                      3615.000000       0.246251
                                                      1183.000000       0.380385
                                                       428.800000       0.542296
                                                       167.800000       0.705350
                                                        69.470000       0.751713
                                                        29.840000       0.557530
                                                        12.720000      -0.017354
                                                         5.244000      -0.505093
                                                         2.219000      -0.494817
                                                         0.776700       0.048755
                                                         0.349000       0.231109
                                                         0.132200       0.061532

                          5       5    5s           374100.000000       0.000000
                                                     56050.000000       0.000000
                                                     12760.000000       0.000000
                                                      3615.000000       0.000000
                                                      1183.000000       0.000000
                                                       428.800000       0.000000
                                                       167.800000       0.000000
                                                        69.470000       0.000000
                                                        29.840000       0.000000
                                                        12.720000       0.000000
                                                         5.244000       0.000000
                                                         2.219000       0.000000
                                                         0.776700       0.000000
                                                         0.349000       0.000000
                                                         0.132200       0.156255

                          6       1    1fx3              0.218000       0.047806
                          6       1    1fx2y             0.218000       0.106897
                          6       1    1fx2z             0.218000       0.106897
                          6       1    1fxy2             0.218000       0.106897
                          6       1    1fxyz             0.218000       0.185151
                          6       1    1fxz2             0.218000       0.106897
                          6       1    1fy3              0.218000       0.047806
                          6       1    1fy2z             0.218000       0.106897
                          6       1    1fyz2             0.218000       0.106897
                          6       1    1fz3              0.218000       0.047806

                          7       1    1dx2              0.819000       1.160530
                                                         0.269000       0.000000
                          7       1    1dxy              0.819000       2.010097
                                                         0.269000       0.000000
                          7       1    1dxz              0.819000       2.010097
                                                         0.269000       0.000000
                          7       1    1dy2              0.819000       1.160530
                                                         0.269000       0.000000
                          7       1    1dyz              0.819000       2.010097
                                                         0.269000       0.000000
                          7       1    1dz2              0.819000       1.160530
                                                         0.269000       0.000000

                          7       2    2dx2              0.819000       0.000000
                                                         0.269000       0.165377
                          7       2    2dxy              0.819000       0.000000
                                                         0.269000       0.286442
                          7       2    2dxz              0.819000       0.000000
                                                         0.269000       0.286442
                          7       2    2dy2              0.819000       0.000000
                                                         0.269000       0.165377
                          7       2    2dyz              0.819000       0.000000
                                                         0.269000       0.286442
                          7       2    2dz2              0.819000       0.000000
                                                         0.269000       0.165377

                          8       1    1fx3              0.557000       0.394574
                          8       1    1fx2y             0.557000       0.882295
                          8       1    1fx2z             0.557000       0.882295
                          8       1    1fxy2             0.557000       0.882295
                          8       1    1fxyz             0.557000       1.528179
                          8       1    1fxz2             0.557000       0.882295
                          8       1    1fy3              0.557000       0.394574
                          8       1    1fy2z             0.557000       0.882295
                          8       1    1fyz2             0.557000       0.882295
                          8       1    1fz3              0.557000       0.394574

     RI Auxiliary Basis Set                                    aug-cc-pVTZ-OPTRI

       Number of orbital shell sets:                                          18
       Number of orbital shells:                                              18
       Number of primitive Cartesian functions:                               18
       Number of Cartesian basis functions:                                  103
       Number of spherical basis functions:                                   78
       Norm type:                                                              2

       Normalised Cartesian orbitals:

                        Set   Shell   Orbital            Exponent    Coefficient

                          1       1    1px               0.056470       0.039238
                          1       1    1py               0.056470       0.039238
                          1       1    1pz               0.056470       0.039238

                          2       1    1s                0.079949       0.107157

                          3       1    1fx3              0.372360       0.159449
                          3       1    1fx2y             0.372360       0.356538
                          3       1    1fx2z             0.372360       0.356538
                          3       1    1fxy2             0.372360       0.356538
                          3       1    1fxyz             0.372360       0.617543
                          3       1    1fxz2             0.372360       0.356538
                          3       1    1fy3              0.372360       0.159449
                          3       1    1fy2z             0.372360       0.356538
                          3       1    1fyz2             0.372360       0.356538
                          3       1    1fz3              0.372360       0.159449

                          4       1    1s                0.387965       0.350352

                          5       1    1dx2              0.436522       0.385852
                          5       1    1dxy              0.436522       0.668314
                          5       1    1dxz              0.436522       0.668314
                          5       1    1dy2              0.436522       0.385852
                          5       1    1dyz              0.436522       0.668314
                          5       1    1dz2              0.436522       0.385852

                          6       1    1gx4              0.487174       0.154016
                          6       1    1gx3y             0.487174       0.407489
                          6       1    1gx3z             0.487174       0.407489
                          6       1    1gx2y2            0.487174       0.526066
                          6       1    1gx2yz            0.487174       0.911173
                          6       1    1gx2z2            0.487174       0.526066
                          6       1    1gxy3             0.487174       0.407489
                          6       1    1gxy2z            0.487174       0.911173
                          6       1    1gxyz2            0.487174       0.911173
                          6       1    1gxz3             0.487174       0.407489
                          6       1    1gy4              0.487174       0.154016
                          6       1    1gy3z             0.487174       0.407489
                          6       1    1gy2z2            0.487174       0.526066
                          6       1    1gyz3             0.487174       0.407489
                          6       1    1gz4              0.487174       0.154016

                          7       1    1px               0.539413       0.658934
                          7       1    1py               0.539413       0.658934
                          7       1    1pz               0.539413       0.658934

                          8       1    1fx3              0.857298       1.041121
                          8       1    1fx2y             0.857298       2.328016
                          8       1    1fx2z             0.857298       2.328016
                          8       1    1fxy2             0.857298       2.328016
                          8       1    1fxyz             0.857298       4.032243
                          8       1    1fxz2             0.857298       2.328016
                          8       1    1fy3              0.857298       1.041121
                          8       1    1fy2z             0.857298       2.328016
                          8       1    1fyz2             0.857298       2.328016
                          8       1    1fz3              0.857298       1.041121

                          9       1    1gx4              1.051297       1.276969
                          9       1    1gx3y             1.051297       3.378542
                          9       1    1gx3z             1.051297       3.378542
                          9       1    1gx2y2            1.051297       4.361679
                          9       1    1gx2yz            1.051297       7.554650
                          9       1    1gx2z2            1.051297       4.361679
                          9       1    1gxy3             1.051297       3.378542
                          9       1    1gxy2z            1.051297       7.554650
                          9       1    1gxyz2            1.051297       7.554650
                          9       1    1gxz3             1.051297       3.378542
                          9       1    1gy4              1.051297       1.276969
                          9       1    1gy3z             1.051297       3.378542
                          9       1    1gy2z2            1.051297       4.361679
                          9       1    1gyz3             1.051297       3.378542
                          9       1    1gz4              1.051297       1.276969

                         10       1    1px               1.630397       2.626073
                         10       1    1py               1.630397       2.626073
                         10       1    1pz               1.630397       2.626073

                         11       1    1s                1.705679       1.063734

                         12       1    1dx2              1.876286       4.950884
                         12       1    1dxy              1.876286       8.575183
                         12       1    1dxz              1.876286       8.575183
                         12       1    1dy2              1.876286       4.950884
                         12       1    1dyz              1.876286       8.575183
                         12       1    1dz2              1.876286       4.950884

                         13       1    1px               3.496947       6.816342
                         13       1    1py               3.496947       6.816342
                         13       1    1pz               3.496947       6.816342

                         14       1    1fx3              5.439897      66.532443
                         14       1    1fx2y             5.439897     148.771066
                         14       1    1fx2z             5.439897     148.771066
                         14       1    1fxy2             5.439897     148.771066
                         14       1    1fxyz             5.439897     257.679045
                         14       1    1fxz2             5.439897     148.771066
                         14       1    1fy3              5.439897      66.532443
                         14       1    1fy2z             5.439897     148.771066
                         14       1    1fyz2             5.439897     148.771066
                         14       1    1fz3              5.439897      66.532443

                         15       1    1s                7.154448       3.117756

                         16       1    1dx2              7.371754      54.282322
                         16       1    1dxy              7.371754      94.019739
                         16       1    1dxz              7.371754      94.019739
                         16       1    1dy2              7.371754      54.282322
                         16       1    1dyz              7.371754      94.019739
                         16       1    1dz2              7.371754      54.282322

                         17       1    1px              12.343066      32.977589
                         17       1    1py              12.343066      32.977589
                         17       1    1pz              12.343066      32.977589

                         18       1    1dx2             19.290141     292.244543
                         18       1    1dxy             19.290141     506.182396
                         18       1    1dxz             19.290141     506.182396
                         18       1    1dy2             19.290141     292.244543
                         18       1    1dyz             19.290141     506.182396
                         18       1    1dz2             19.290141     292.244543

       Atomic covalent radius [Angstrom]:                                  1.020

       Atomic van der Waals radius [Angstrom]:                             1.800

     The atoms of this atomic kind are PAW atoms (GAPW):
       Hard Gaussian function radius:                                      1.512
       Rho0 radius:                                                        1.512
       Maximum GTO radius used for PAW projector construction:            24.566

     GAPW Soft Basis Set                                        aug-cc-pVTZ_soft

       Number of orbital shell sets:                                           8
       Number of orbital shells:                                              16
       Number of primitive Cartesian functions:                               15
       Number of Cartesian basis functions:                                   59
       Number of spherical basis functions:                                   50
       Norm type:                                                              2

       Normalised Cartesian orbitals:

                        Set   Shell   Orbital            Exponent    Coefficient

                          1       1    1px               0.035100       0.021656
                          1       1    1py               0.035100       0.021656
                          1       1    1pz               0.035100       0.021656

                          2       1    1s                0.049700       0.075020

                          3       1    1dx2              0.101000       0.029783
                          3       1    1dxy              0.101000       0.051586
                          3       1    1dxz              0.101000       0.051586
                          3       1    1dy2              0.101000       0.029783
                          3       1    1dyz              0.101000       0.051586
                          3       1    1dz2              0.101000       0.029783

                          4       1    1px               2.483000       1.577000
                                                         0.868800       0.074001
                                                         0.322900      -0.001745
                                                         0.109800       0.000189
                          4       1    1py               2.483000       1.577000
                                                         0.868800       0.074001
                                                         0.322900      -0.001745
                                                         0.109800       0.000189
                          4       1    1pz               2.483000       1.577000
                                                         0.868800       0.074001
                                                         0.322900      -0.001745
                                                         0.109800       0.000189

                          4       2    2px               2.483000       0.000000
                                                         0.868800       1.195611
                                                         0.322900       0.000000
                                                         0.109800       0.000000
                          4       2    2py               2.483000       0.000000
                                                         0.868800       1.195611
                                                         0.322900       0.000000
                                                         0.109800       0.000000
                          4       2    2pz               2.483000       0.000000
                                                         0.868800       1.195611
                                                         0.322900       0.000000
                                                         0.109800       0.000000

                          4       3    3px               2.483000      -0.430733
                                                         0.868800       0.272856
                                                         0.322900       0.197555
                                                         0.109800       0.033001
                          4       3    3py               2.483000      -0.430733
                                                         0.868800       0.272856
                                                         0.322900       0.197555
                                                         0.109800       0.033001
                          4       3    3pz               2.483000      -0.430733
                                                         0.868800       0.272856
                                                         0.322900       0.197555
                                                         0.109800       0.033001

                          4       4    4px               2.483000       0.000000
                                                         0.868800       0.000000
                                                         0.322900       0.000000
                                                         0.109800       0.090093
                          4       4    4py               2.483000       0.000000
                                                         0.868800       0.000000
                                                         0.322900       0.000000
                                                         0.109800       0.090093
                          4       4    4pz               2.483000       0.000000
                                                         0.868800       0.000000
                                                         0.322900       0.000000
                                                         0.109800       0.090093

                          5       1    1s                2.219000       0.002136
                                                         0.776700      -0.000367
                                                         0.349000       0.000098
                                                         0.132200      -0.000013

                          5       2    2s                2.219000       0.702539
                                                         0.776700       0.040594
                                                         0.349000      -0.002971
                                                         0.132200       0.000354

                          5       3    3s                2.219000       0.000000
                                                         0.776700       0.589658
                                                         0.349000       0.000000
                                                         0.132200       0.000000

                          5       4    4s                2.219000      -0.494817
                                                         0.776700       0.048755
                                                         0.349000       0.231109
                                                         0.132200       0.061532

                          5       5    5s                2.219000       0.000000
                                                         0.776700       0.000000
                                                         0.349000       0.000000
                                                         0.132200       0.156255

                          6       1    1fx3              0.218000       0.047806
                          6       1    1fx2y             0.218000       0.106897
                          6       1    1fx2z             0.218000       0.106897
                          6       1    1fxy2             0.218000       0.106897
                          6       1    1fxyz             0.218000       0.185151
                          6       1    1fxz2             0.218000       0.106897
                          6       1    1fy3              0.218000       0.047806
                          6       1    1fy2z             0.218000       0.106897
                          6       1    1fyz2             0.218000       0.106897
                          6       1    1fz3              0.218000       0.047806

                          7       1    1dx2              0.819000       1.160530
                                                         0.269000       0.000000
                          7       1    1dxy              0.819000       2.010097
                                                         0.269000       0.000000
                          7       1    1dxz              0.819000       2.010097
                                                         0.269000       0.000000
                          7       1    1dy2              0.819000       1.160530
                                                         0.269000       0.000000
                          7       1    1dyz              0.819000       2.010097
                                                         0.269000       0.000000
                          7       1    1dz2              0.819000       1.160530
                                                         0.269000       0.000000

                          7       2    2dx2              0.819000       0.000000
                                                         0.269000       0.165377
                          7       2    2dxy              0.819000       0.000000
                                                         0.269000       0.286442
                          7       2    2dxz              0.819000       0.000000
                                                         0.269000       0.286442
                          7       2    2dy2              0.819000       0.000000
                                                         0.269000       0.165377
                          7       2    2dyz              0.819000       0.000000
                                                         0.269000       0.286442
                          7       2    2dz2              0.819000       0.000000
                                                         0.269000       0.165377

                          8       1    1fx3              0.557000       0.394574
                          8       1    1fx2y             0.557000       0.882295
                          8       1    1fx2z             0.557000       0.882295
                          8       1    1fxy2             0.557000       0.882295
                          8       1    1fxyz             0.557000       1.528179
                          8       1    1fxz2             0.557000       0.882295
                          8       1    1fy3              0.557000       0.394574
                          8       1    1fy2z             0.557000       0.882295
                          8       1    1fyz2             0.557000       0.882295
                          8       1    1fz3              0.557000       0.394574

     AE Potential information for                                            ALL

       Description:                                       All-electron potential
                                          Krack, Parrinello, PCCP 2, 2105 (2000)

       Gaussian exponent of the core charge distribution:               2.834467
       Electronic configuration (s p d ...):                           6  10   0

  2. Atomic kind: O                                     Number of atoms:       1

     Orbital Basis Set                                               aug-cc-pVTZ

       Number of orbital shell sets:                                           8
       Number of orbital shells:                                              14
       Number of primitive Cartesian functions:                               22
       Number of Cartesian basis functions:                                   55
       Number of spherical basis functions:                                   46
       Norm type:                                                              2

       Normalised Cartesian orbitals:

                        Set   Shell   Orbital            Exponent    Coefficient

                          1       1    1px               0.059740       0.042099
                          1       1    1py               0.059740       0.042099
                          1       1    1pz               0.059740       0.042099

                          2       1    1s                0.073760       0.100873

                          3       1    1px              34.460000       0.000000
                                                         7.749000       0.000000
                                                         2.280000       0.000000
                                                         0.715600       0.938162
                                                         0.214000       0.000000
                          3       1    1py              34.460000       0.000000
                                                         7.749000       0.000000
                                                         2.280000       0.000000
                                                         0.715600       0.938162
                                                         0.214000       0.000000
                          3       1    1pz              34.460000       0.000000
                                                         7.749000       0.000000
                                                         2.280000       0.000000
                                                         0.715600       0.938162
                                                         0.214000       0.000000

                          3       2    2px              34.460000       1.895593
                                                         7.749000       1.838088
                                                         2.280000       1.239963
                                                         0.715600       0.460662
                                                         0.214000       0.069780
                          3       2    2py              34.460000       1.895593
                                                         7.749000       1.838088
                                                         2.280000       1.239963
                                                         0.715600       0.460662
                                                         0.214000       0.069780
                          3       2    2pz              34.460000       1.895593
                                                         7.749000       1.838088
                                                         2.280000       1.239963
                                                         0.715600       0.460662
                                                         0.214000       0.069780

                          3       3    3px              34.460000       0.000000
                                                         7.749000       0.000000
                                                         2.280000       0.000000
                                                         0.715600       0.000000
                                                         0.214000       0.207471
                          3       3    3py              34.460000       0.000000
                                                         7.749000       0.000000
                                                         2.280000       0.000000
                                                         0.715600       0.000000
                                                         0.214000       0.207471
                          3       3    3pz              34.460000       0.000000
                                                         7.749000       0.000000
                                                         2.280000       0.000000
                                                         0.715600       0.000000
                                                         0.214000       0.207471

                          4       1    1dx2              0.214000       0.110824
                          4       1    1dxy              0.214000       0.191953
                          4       1    1dxz              0.214000       0.191953
                          4       1    1dy2              0.214000       0.110824
                          4       1    1dyz              0.214000       0.191953
                          4       1    1dz2              0.214000       0.110824

                          5       1    1s            15330.000000       0.498804
                                                      2299.000000       0.929707
                                                       522.400000       1.576475
                                                       147.300000       2.386068
                                                        47.550000       2.977116
                                                        16.760000       2.556946
                                                         6.207000       0.981661
                                                         1.752000       0.046374
                                                         0.688200      -0.004391
                                                         0.238400       0.000579

                          5       2    2s            15330.000000       0.000000
                                                      2299.000000       0.000000
                                                       522.400000       0.000000
                                                       147.300000       0.000000
                                                        47.550000       0.000000
                                                        16.760000       0.000000
                                                         6.207000       0.000000
                                                         1.752000       1.085327
                                                         0.688200       0.000000
                                                         0.238400       0.000000

                          5       3    3s            15330.000000      -0.112918
                                                      2299.000000      -0.211781
                                                       522.400000      -0.361041
                                                       147.300000      -0.564236
                                                        47.550000      -0.754491
                                                        16.760000      -0.805621
                                                         6.207000      -0.492541
                                                         1.752000       0.174666
                                                         0.688200       0.324949
                                                         0.238400       0.092100

                          5       4    4s            15330.000000       0.000000
                                                      2299.000000       0.000000
                                                       522.400000       0.000000
                                                       147.300000       0.000000
                                                        47.550000       0.000000
                                                        16.760000       0.000000
                                                         6.207000       0.000000
                                                         1.752000       0.000000
                                                         0.688200       0.000000
                                                         0.238400       0.243159

                          6       1    1fx3              0.500000       0.309483
                          6       1    1fx2y             0.500000       0.692025
                          6       1    1fx2z             0.500000       0.692025
                          6       1    1fxy2             0.500000       0.692025
                          6       1    1fxyz             0.500000       1.198623
                          6       1    1fxz2             0.500000       0.692025
                          6       1    1fy3              0.500000       0.309483
                          6       1    1fy2z             0.500000       0.692025
                          6       1    1fyz2             0.500000       0.692025
                          6       1    1fz3              0.500000       0.309483

                          7       1    1dx2              2.314000       7.145709
                                                         0.645000       0.000000
                          7       1    1dxy              2.314000      12.376731
                                                         0.645000       0.000000
                          7       1    1dxz              2.314000      12.376731
                                                         0.645000       0.000000
                          7       1    1dy2              2.314000       7.145709
                                                         0.645000       0.000000
                          7       1    1dyz              2.314000      12.376731
                                                         0.645000       0.000000
                          7       1    1dz2              2.314000       7.145709
                                                         0.645000       0.000000

                          7       2    2dx2              2.314000       0.000000
                                                         0.645000       0.764080
                          7       2    2dxy              2.314000       0.000000
                                                         0.645000       1.323426
                          7       2    2dxz              2.314000       0.000000
                                                         0.645000       1.323426
                          7       2    2dy2              2.314000       0.000000
                                                         0.645000       0.764080
                          7       2    2dyz              2.314000       0.000000
                                                         0.645000       1.323426
                          7       2    2dz2              2.314000       0.000000
                                                         0.645000       0.764080

                          8       1    1fx3              1.428000       3.281655
                          8       1    1fx2y             1.428000       7.338004
                          8       1    1fx2z             1.428000       7.338004
                          8       1    1fxy2             1.428000       7.338004
                          8       1    1fxyz             1.428000      12.709795
                          8       1    1fxz2             1.428000       7.338004
                          8       1    1fy3              1.428000       3.281655
                          8       1    1fy2z             1.428000       7.338004
                          8       1    1fyz2             1.428000       7.338004
                          8       1    1fz3              1.428000       3.281655

     RI Auxiliary Basis Set                                    aug-cc-pVTZ-OPTRI

       Number of orbital shell sets:                                          18
       Number of orbital shells:                                              18
       Number of primitive Cartesian functions:                               18
       Number of Cartesian basis functions:                                  103
       Number of spherical basis functions:                                   78
       Norm type:                                                              2

       Normalised Cartesian orbitals:

                        Set   Shell   Orbital            Exponent    Coefficient

                          1       1    1px               0.089368       0.069649
                          1       1    1py               0.089368       0.069649
                          1       1    1pz               0.089368       0.069649

                          2       1    1s                0.110437       0.136536

                          3       1    1dx2              0.319327       0.223266
                          3       1    1dxy              0.319327       0.386707
                          3       1    1dxz              0.319327       0.386707
                          3       1    1dy2              0.319327       0.223266
                          3       1    1dyz              0.319327       0.386707
                          3       1    1dz2              0.319327       0.223266

                          4       1    1px               0.330145       0.356715
                          4       1    1py               0.330145       0.356715
                          4       1    1pz               0.330145       0.356715

                          5       1    1s                0.453302       0.393732

                          6       1    1fx3              0.749935       0.770473
                          6       1    1fx2y             0.749935       1.722831
                          6       1    1fx2z             0.749935       1.722831
                          6       1    1fxy2             0.749935       1.722831
                          6       1    1fxyz             0.749935       2.984030
                          6       1    1fxz2             0.749935       1.722831
                          6       1    1fy3              0.749935       0.770473
                          6       1    1fy2z             0.749935       1.722831
                          6       1    1fyz2             0.749935       1.722831
                          6       1    1fz3              0.749935       0.770473

                          7       1    1px               1.067952       1.547497
                          7       1    1py               1.067952       1.547497
                          7       1    1pz               1.067952       1.547497

                          8       1    1gx4              1.075471       1.359352
                          8       1    1gx3y             1.075471       3.596507
                          8       1    1gx3z             1.075471       3.596507
                          8       1    1gx2y2            1.075471       4.643070
                          8       1    1gx2yz            1.075471       8.042034
                          8       1    1gx2z2            1.075471       4.643070
                          8       1    1gxy3             1.075471       3.596507
                          8       1    1gxy2z            1.075471       8.042034
                          8       1    1gxyz2            1.075471       8.042034
                          8       1    1gxz3             1.075471       3.596507
                          8       1    1gy4              1.075471       1.359352
                          8       1    1gy3z             1.075471       3.596507
                          8       1    1gy2z2            1.075471       4.643070
                          8       1    1gyz3             1.075471       3.596507
                          8       1    1gz4              1.075471       1.359352

                          9       1    1dx2              1.374781       2.872884
                          9       1    1dxy              1.374781       4.975981
                          9       1    1dxz              1.374781       4.975981
                          9       1    1dy2              1.374781       2.872884
                          9       1    1dyz              1.374781       4.975981
                          9       1    1dz2              1.374781       2.872884

                         10       1    1px               2.352584       4.153092
                         10       1    1py               2.352584       4.153092
                         10       1    1pz               2.352584       4.153092

                         11       1    1gx4              3.141319      25.911559
                         11       1    1gx3y             3.141319      68.555540
                         11       1    1gx3z             3.141319      68.555540
                         11       1    1gx2y2            3.141319      88.504822
                         11       1    1gx2yz            3.141319     153.294849
                         11       1    1gx2z2            3.141319      88.504822
                         11       1    1gxy3             3.141319      68.555540
                         11       1    1gxy2z            3.141319     153.294849
                         11       1    1gxyz2            3.141319     153.294849
                         11       1    1gxz3             3.141319      68.555540
                         11       1    1gy4              3.141319      25.911559
                         11       1    1gy3z             3.141319      68.555540
                         11       1    1gy2z2            3.141319      88.504822
                         11       1    1gyz3             3.141319      68.555540
                         11       1    1gz4              3.141319      25.911559

                         12       1    1fx3              3.242493      20.769800
                         12       1    1fx2y             3.242493      46.442684
                         12       1    1fx2z             3.242493      46.442684
                         12       1    1fxy2             3.242493      46.442684
                         12       1    1fxyz             3.242493      80.441088
                         12       1    1fxz2             3.242493      46.442684
                         12       1    1fy3              3.242493      20.769800
                         12       1    1fy2z             3.242493      46.442684
                         12       1    1fyz2             3.242493      46.442684
                         12       1    1fz3              3.242493      20.769800

                         13       1    1s                3.375893       1.775013

                         14       1    1dx2              4.278700      20.951020
                         14       1    1dxy              4.278700      36.288231
                         14       1    1dxz              4.278700      36.288231
                         14       1    1dy2              4.278700      20.951020
                         14       1    1dyz              4.278700      36.288231
                         14       1    1dz2              4.278700      20.951020

                         15       1    1px               5.456091      11.886174
                         15       1    1py               5.456091      11.886174
                         15       1    1pz               5.456091      11.886174

                         16       1    1fx3              6.915251     114.162201
                         16       1    1fx2y             6.915251     255.274442
                         16       1    1fx2z             6.915251     255.274442
                         16       1    1fxy2             6.915251     255.274442
                         16       1    1fxyz             6.915251     442.148303
                         16       1    1fxz2             6.915251     255.274442
                         16       1    1fy3              6.915251     114.162201
                         16       1    1fy2z             6.915251     255.274442
                         16       1    1fyz2             6.915251     255.274442
                         16       1    1fz3              6.915251     114.162201

                         17       1    1s               11.352581       4.407893

                         18       1    1dx2             12.069849     128.643448
                         18       1    1dxy             12.069849     222.816987
                         18       1    1dxz             12.069849     222.816987
                         18       1    1dy2             12.069849     128.643448
                         18       1    1dyz             12.069849     222.816987
                         18       1    1dz2             12.069849     128.643448

       Atomic covalent radius [Angstrom]:                                  0.730

       Atomic van der Waals radius [Angstrom]:                             1.520

     The atoms of this atomic kind are PAW atoms (GAPW):
       Hard Gaussian function radius:                                      1.512
       Rho0 radius:                                                        1.512
       Maximum GTO radius used for PAW projector construction:            24.566

     GAPW Soft Basis Set                                        aug-cc-pVTZ_soft

       Number of orbital shell sets:                                           8
       Number of orbital shells:                                              14
       Number of primitive Cartesian functions:                               13
       Number of Cartesian basis functions:                                   55
       Number of spherical basis functions:                                   46
       Norm type:                                                              2

       Normalised Cartesian orbitals:

                        Set   Shell   Orbital            Exponent    Coefficient

                          1       1    1px               0.059740       0.042099
                          1       1    1py               0.059740       0.042099
                          1       1    1pz               0.059740       0.042099

                          2       1    1s                0.073760       0.100873

                          3       1    1px               2.280000       0.000000
                                                         0.715600       0.938162
                                                         0.214000       0.000000
                          3       1    1py               2.280000       0.000000
                                                         0.715600       0.938162
                                                         0.214000       0.000000
                          3       1    1pz               2.280000       0.000000
                                                         0.715600       0.938162
                                                         0.214000       0.000000

                          3       2    2px               2.280000       1.239963
                                                         0.715600       0.460662
                                                         0.214000       0.069780
                          3       2    2py               2.280000       1.239963
                                                         0.715600       0.460662
                                                         0.214000       0.069780
                          3       2    2pz               2.280000       1.239963
                                                         0.715600       0.460662
                                                         0.214000       0.069780

                          3       3    3px               2.280000       0.000000
                                                         0.715600       0.000000
[...]
   418 Broy./Diag. 0.10E+00    5.5     0.18490948      -473.1621101192  2.96E-03
   419 Broy./Diag. 0.10E+00    5.5     0.14185615      -473.1592423796  2.87E-03
   420 Broy./Diag. 0.10E+00    5.5     0.01884811      -473.1584449483  7.97E-04
   421 Broy./Diag. 0.10E+00    5.5     0.04933995      -473.1648470684 -6.40E-03
   422 Broy./Diag. 0.10E+00    5.5     0.02271016      -473.1878118175 -2.30E-02
   423 Broy./Diag. 0.10E+00    5.5     0.05506813      -473.1833680837  4.44E-03
   424 Broy./Diag. 0.10E+00    5.5     0.00711713      -473.1768713209  6.50E-03
   425 Broy./Diag. 0.10E+00    5.5     0.02676100      -473.1717413519  5.13E-03
   426 Broy./Diag. 0.10E+00    5.5     0.05399513      -473.1730400527 -1.30E-03
   427 Broy./Diag. 0.10E+00    5.5     0.06353561      -473.1721022151  9.38E-04
   428 Broy./Diag. 0.10E+00    5.5     0.00876530      -473.1657091673  6.39E-03
   429 Broy./Diag. 0.10E+00    5.4     0.02103814      -473.1551493162  1.06E-02
   430 Broy./Diag. 0.10E+00    5.6     0.01334589      -473.1502509240  4.90E-03
   431 Broy./Diag. 0.10E+00    5.5     0.03705299      -473.1497748908  4.76E-04
   432 Broy./Diag. 0.10E+00    5.5     0.02160495      -473.1505930643 -8.18E-04
   433 Broy./Diag. 0.10E+00    5.4     0.01975639      -473.1507775651 -1.85E-04
   434 Broy./Diag. 0.10E+00    5.5     0.01326938      -473.1542287092 -3.45E-03
   435 Broy./Diag. 0.10E+00    5.5     0.00586049      -473.1571459728 -2.92E-03
   436 Broy./Diag. 0.10E+00    5.5     0.00318251      -473.1569942450  1.52E-04
   437 Broy./Diag. 0.10E+00    5.5     0.00541414      -473.1522436112  4.75E-03
   438 Broy./Diag. 0.10E+00    5.5     0.00402739      -473.1489975135  3.25E-03
   439 Broy./Diag. 0.10E+00    5.5     0.00323118      -473.1490856024 -8.81E-05
   440 Broy./Diag. 0.10E+00    5.5     0.00260460      -473.1488415331  2.44E-04
   441 Broy./Diag. 0.10E+00    5.5     0.00527754      -473.1482158292  6.26E-04
   442 Broy./Diag. 0.10E+00    5.5     0.00110692      -473.1481339418  8.19E-05
   443 Broy./Diag. 0.10E+00    5.5     0.00348001      -473.1478162654  3.18E-04
   444 Broy./Diag. 0.10E+00    5.5     0.00257378      -473.1472591183  5.57E-04
   445 Broy./Diag. 0.10E+00    5.4     0.00840823      -473.1463078214  9.51E-04
   446 Broy./Diag. 0.10E+00    5.5     0.00383993      -473.1460250783  2.83E-04
   447 Broy./Diag. 0.10E+00    5.6     0.00398153      -473.1458309007  1.94E-04
   448 Broy./Diag. 0.10E+00    5.5     0.00476197      -473.1458799374 -4.90E-05
   449 Broy./Diag. 0.10E+00    5.4     0.01070266      -473.1459032555 -2.33E-05
   450 Broy./Diag. 0.10E+00    5.5     0.01710437      -473.1460365750 -1.33E-04
   451 Broy./Diag. 0.10E+00    5.5     0.02815470      -473.1458731132  1.63E-04
   452 Broy./Diag. 0.10E+00    5.5     0.04673600      -473.1456815858  1.92E-04
   453 Broy./Diag. 0.10E+00    5.5     0.07167691      -473.1455504300  1.31E-04
   454 Broy./Diag. 0.10E+00    5.6     0.11273365      -473.1450488545  5.02E-04
   455 Broy./Diag. 0.10E+00    5.5     0.16467939      -473.1434795580  1.57E-03
   456 Broy./Diag. 0.10E+00    5.5     0.18779846      -473.1398338635  3.65E-03
   457 Broy./Diag. 0.10E+00    5.5     0.24185326      -473.1330614564  6.77E-03
   458 Broy./Diag. 0.10E+00    5.5     0.27435369      -473.1229425901  1.01E-02
   459 Broy./Diag. 0.10E+00    5.5     0.23539460      -473.1119840637  1.10E-02
   460 Broy./Diag. 0.10E+00    5.5     0.16748806      -473.1027509591  9.23E-03
   461 Broy./Diag. 0.10E+00    5.4     0.10686634      -473.0963505595  6.40E-03
   462 Broy./Diag. 0.10E+00    5.5     0.09342501      -473.0926120912  3.74E-03
   463 Broy./Diag. 0.10E+00    5.5     0.07676385      -473.0908762273  1.74E-03
   464 Broy./Diag. 0.10E+00    5.6     0.05850560      -473.0898523925  1.02E-03
   465 Broy./Diag. 0.10E+00    5.5     0.05035151      -473.0899428349 -9.04E-05
   466 Broy./Diag. 0.10E+00    5.5     0.07095113      -473.0944882813 -4.55E-03
   467 Broy./Diag. 0.10E+00    5.5     0.10869762      -473.1067786824 -1.23E-02
   468 Broy./Diag. 0.10E+00    5.6     0.15612578      -473.1237570327 -1.70E-02
   469 Broy./Diag. 0.10E+00    5.5     0.20361586      -473.1426033259 -1.88E-02
   470 Broy./Diag. 0.10E+00    5.5     0.18225163      -473.1625369718 -1.99E-02
   471 Broy./Diag. 0.10E+00    5.5     0.10490983      -473.1940980640 -3.16E-02
   472 Broy./Diag. 0.10E+00    5.5     0.09161120      -473.2405508806 -4.65E-02
   473 Broy./Diag. 0.10E+00    5.4     0.04552545      -473.2465375319 -5.99E-03
   474 Broy./Diag. 0.10E+00    5.5     0.09245141      -473.2842678176 -3.77E-02
   475 Broy./Diag. 0.10E+00    5.6     0.08455231      -473.3243661699 -4.01E-02
   476 Broy./Diag. 0.10E+00    5.6     0.05425382      -473.3219567990  2.41E-03
   477 Broy./Diag. 0.10E+00    5.4     0.05093751      -473.2504158000  7.15E-02
   478 Broy./Diag. 0.10E+00    5.4     0.08557612      -473.1563020320  9.41E-02
   479 Broy./Diag. 0.10E+00    5.5     0.05291840      -473.1446240449  1.17E-02
   480 Broy./Diag. 0.10E+00    5.6     0.07247763      -473.1613878285 -1.68E-02
   481 Broy./Diag. 0.10E+00    5.5     0.24086557      -473.1506697915  1.07E-02
   482 Broy./Diag. 0.10E+00    5.5     0.32622196      -473.1380471621  1.26E-02
   483 Broy./Diag. 0.10E+00    5.5     0.25770044      -473.1303787183  7.67E-03
   484 Broy./Diag. 0.10E+00    5.5     0.15675917      -473.1265469580  3.83E-03
   485 Broy./Diag. 0.10E+00    5.4     0.17065961      -473.1236533247  2.89E-03
   486 Broy./Diag. 0.10E+00    5.5     0.16094361      -473.1258752736 -2.22E-03
   487 Broy./Diag. 0.10E+00    5.5     0.12851459      -473.1245973010  1.28E-03
   488 Broy./Diag. 0.10E+00    5.5     0.10092158      -473.1110293338  1.36E-02
   489 Broy./Diag. 0.10E+00    5.5     0.13564715      -473.1191603970 -8.13E-03
   490 Broy./Diag. 0.10E+00    5.6     0.14865032      -473.1286884735 -9.53E-03
   491 Broy./Diag. 0.10E+00    5.5     0.13881483      -473.1270467132  1.64E-03
   492 Broy./Diag. 0.10E+00    5.5     0.09660265      -473.1287034659 -1.66E-03
   493 Broy./Diag. 0.10E+00    5.5     0.10624835      -473.1449856129 -1.63E-02
   494 Broy./Diag. 0.10E+00    5.5     0.15208125      -473.1837151490 -3.87E-02
   495 Broy./Diag. 0.10E+00    5.5     0.14302153      -473.2012076830 -1.75E-02
   496 Broy./Diag. 0.10E+00    5.5     0.03862050      -473.1971550002  4.05E-03
   497 Broy./Diag. 0.10E+00    5.6     0.10289411      -473.1855574617  1.16E-02
   498 Broy./Diag. 0.10E+00    5.5     0.10443481      -473.1981079381 -1.26E-02
   499 Broy./Diag. 0.10E+00    5.6     0.16115472      -473.2023703818 -4.26E-03
   500 Broy./Diag. 0.10E+00    5.5     0.18378785      -473.1991833027  3.19E-03

  Leaving inner SCF loop after reaching   500 steps.


  Electronic density on regular grids:        -13.5222628780       10.4777371220
  Core density on regular grids:               24.0000000000        0.0000000000
  Hard and soft densities (Lebedev):          -38.4725512958      -27.9972372735
  Total Rho_soft + Rho1_hard - Rho1_soft      -23.9975769003
  Total charge density (r-space):               0.0024230997
  Total Rho_soft + Rho0_soft (g-space):         0.0024229251

  Overlap energy of the core charge distribution:               0.00000038248801
  Self energy of the core charge distribution:               -244.85361235670862
  Core Hamiltonian energy:                                   -234.87512624618392
  Hartree energy:                                              39.95781879870166
  Exchange-correlation energy:                                 -5.22026059229679
  Hartree-Fock Exchange energy:                                -8.28384452038445

  GAPW| Exc from hard and soft atomic rho1:                   -20.48496530535573
  GAPW| local Eh = 1 center integrals:                          0.56080653706492

  Total energy:                                              -473.19918330267484

 *******************************************************************************
 *   ___                                                                       *
 *  /   \                                                                      *
 * [ABORT]                                                                     *
 *  \___/     SCF run NOT converged. To continue the calculation regardless,   *
 *    |             please set the keyword IGNORE_CONVERGENCE_FAILURE.         *
 *  O/|                                                                        *
 * /| |                                                                        *
 * / \                                                            qs_scf.F:611 *
 *******************************************************************************


 ===== Routine Calling Stack ===== 

            3 scf_env_do_scf
            2 qs_energies
            1 CP2K

 *******************************************************************************
 *   ___                                                                       *
 *  /   \                                                                      *
 * [ABORT]                                                                     *
 *  \___/     SCF run NOT converged. To continue the calculation regardless,   *
 *    |             please set the keyword IGNORE_CONVERGENCE_FAILURE.         *
 *  O/|                                                                        *
 * /| |                                                                        *
 * / \                                                            qs_scf.F:611 *
 *******************************************************************************


 ===== Routine Calling Stack ===== 

            3 scf_env_do_scf
            2 qs_energies
            1 CP2K

 *******************************************************************************
 *   ___                                                                       *
 *  /   \                                                                      *
 * [ABORT]                                                                     *
 *  \___/     SCF run NOT converged. To continue the calculation regardless,   *
 *    |             please set the keyword IGNORE_CONVERGENCE_FAILURE.         *
 *  O/|                                                                        *
 * /| |                                                                        *
 * / \                                                            qs_scf.F:611 *
 *******************************************************************************


 ===== Routine Calling Stack ===== 

            3 scf_env_do_scf
            2 qs_energies
            1 CP2K

 *******************************************************************************
 *   ___                                                                       *
 *  /   \                                                                      *
 * [ABORT]                                                                     *
 *  \___/     SCF run NOT converged. To continue the calculation regardless,   *
 *    |             please set the keyword IGNORE_CONVERGENCE_FAILURE.         *
 *  O/|                                                                        *
 * /| |                                                                        *
 * / \                                                            qs_scf.F:611 *
 *******************************************************************************


 ===== Routine Calling Stack ===== 

            3 scf_env_do_scf
            2 qs_energies
            1 CP2K

 *******************************************************************************
 *   ___                                                                       *
 *  /   \                                                                      *
 * [ABORT]                                                                     *
 *  \___/     SCF run NOT converged. To continue the calculation regardless,   *
 *    |             please set the keyword IGNORE_CONVERGENCE_FAILURE.         *
 *  O/|                                                                        *
 * /| |                                                                        *
 * / \                                                            qs_scf.F:611 *
 *******************************************************************************


 ===== Routine Calling Stack ===== 

            3 scf_env_do_scf
            2 qs_energies
            1 CP2K

 *******************************************************************************
 *   ___                                                                       *
 *  /   \                                                                      *
 * [ABORT]                                                                     *
 *  \___/     SCF run NOT converged. To continue the calculation regardless,   *
 *    |             please set the keyword IGNORE_CONVERGENCE_FAILURE.         *
 *  O/|                                                                        *
 * /| |                                                                        *
 * / \                                                            qs_scf.F:611 *
 *******************************************************************************


 ===== Routine Calling Stack ===== 

            3 scf_env_do_scf
            2 qs_energies
            1 CP2K

 *******************************************************************************
 *   ___                                                                       *
 *  /   \                                                                      *
 * [ABORT]                                                                     *
 *  \___/     SCF run NOT converged. To continue the calculation regardless,   *
 *    |             please set the keyword IGNORE_CONVERGENCE_FAILURE.         *
 *  O/|                                                                        *
 * /| |                                                                        *
 * / \                                                            qs_scf.F:611 *
 *******************************************************************************


 ===== Routine Calling Stack ===== 

            3 scf_env_do_scf
            2 qs_energies
            1 CP2K

 *******************************************************************************
 *   ___                                                                       *
 *  /   \                                                                      *
 * [ABORT]                                                                     *
 *  \___/     SCF run NOT converged. To continue the calculation regardless,   *
 *    |             please set the keyword IGNORE_CONVERGENCE_FAILURE.         *
 *  O/|                                                                        *
 * /| |                                                                        *
 * / \                                                            qs_scf.F:611 *
 *******************************************************************************


 ===== Routine Calling Stack ===== 

            3 scf_env_do_scf
            2 qs_energies
            1 CP2K

 *******************************************************************************
 *   ___                                                                       *
 *  /   \                                                                      *
 * [ABORT]                                                                     *
 *  \___/     SCF run NOT converged. To continue the calculation regardless,   *
 *    |             please set the keyword IGNORE_CONVERGENCE_FAILURE.         *
 *  O/|                                                                        *
 * /| |                                                                        *
 * / \                                                            qs_scf.F:611 *
 *******************************************************************************


 ===== Routine Calling Stack ===== 

            3 scf_env_do_scf
            2 qs_energies
            1 CP2K

 *******************************************************************************
 *   ___                                                                       *
 *  /   \                                                                      *
 * [ABORT]                                                                     *
 *  \___/     SCF run NOT converged. To continue the calculation regardless,   *
 *    |             please set the keyword IGNORE_CONVERGENCE_FAILURE.         *
 *  O/|                                                                        *
 * /| |                                                                        *
 * / \                                                            qs_scf.F:611 *
 *******************************************************************************


 ===== Routine Calling Stack ===== 

            3 scf_env_do_scf
            2 qs_energies
            1 CP2K

 *******************************************************************************
 *   ___                                                                       *
 *  /   \                                                                      *
 * [ABORT]                                                                     *
 *  \___/     SCF run NOT converged. To continue the calculation regardless,   *
 *    |             please set the keyword IGNORE_CONVERGENCE_FAILURE.         *
 *  O/|                                                                        *
 * /| |                                                                        *
 * / \                                                            qs_scf.F:611 *
 *******************************************************************************


 ===== Routine Calling Stack ===== 

            3 scf_env_do_scf
            2 qs_energies
            1 CP2K

 *******************************************************************************
 *   ___                                                                       *
 *  /   \                                                                      *
 * [ABORT]                                                                     *
 *  \___/     SCF run NOT converged. To continue the calculation regardless,   *
 *    |             please set the keyword IGNORE_CONVERGENCE_FAILURE.         *
 *  O/|                                                                        *
 * /| |                                                                        *
 * / \                                                            qs_scf.F:611 *
 *******************************************************************************


 ===== Routine Calling Stack ===== 

            3 scf_env_do_scf
            2 qs_energies
            1 CP2K

 *******************************************************************************
 *   ___                                                                       *
 *  /   \                                                                      *
 * [ABORT]                                                                     *
 *  \___/     SCF run NOT converged. To continue the calculation regardless,   *
 *    |             please set the keyword IGNORE_CONVERGENCE_FAILURE.         *
 *  O/|                                                                        *
 * /| |                                                                        *
 * / \                                                            qs_scf.F:611 *
 *******************************************************************************


 ===== Routine Calling Stack ===== 

            3 scf_env_do_scf
            2 qs_energies
            1 CP2K
