 DBCSR| CPU Multiplication driver                                           BLAS (U)
 DBCSR| Multrec recursion limit                                              512 (U)
 DBCSR| Multiplication stack size                                           1000 (D)
 DBCSR| Maximum elements for images                                    UNLIMITED (U)
 DBCSR| Multiplicative factor virtual images                                   1 (U)
 DBCSR| Use multiplication densification                                       T (D)
 DBCSR| Multiplication size stacks                                             3 (U)
 DBCSR| Use memory pool for CPU allocation                                     F (U)
 DBCSR| Number of 3D layers                                               SINGLE (U)
 DBCSR| Use MPI memory allocation                                              F (U)
 DBCSR| Use RMA algorithm                                                      F (U)
 DBCSR| Use Communication thread                                               T (U)
 DBCSR| Communication thread load                                             75 (D)
 DBCSR| MPI: My process id                                                     0
 DBCSR| MPI: Number of processes                                              24
 DBCSR| OMP: Current number of threads                                         4
 DBCSR| OMP: Max number of threads                                             4
 DBCSR| Split modifier for TAS multiplication algorithm                  1.0E+00 (U)


  **** **** ******  **  PROGRAM STARTED AT               2025-03-16 14:32:43.591
 ***** ** ***  *** **   PROGRAM STARTED ON                          i02r11c05s07
 **    ****   ******    PROGRAM STARTED BY                               di38fab
 ***** **    ** ** **   PROGRAM PROCESS ID                               2440868
  **** **  *******  **  PROGRAM STARTED IN /hppfs/scratch/04/di38fab/05_MOL/W4-1
                                           1+ALK/bn3pi/SZVSR/GW+BSE/Np1

 CP2K| version string:                 CP2K version 2025.1 (Development Version)
 CP2K| source code revision number:                                  git:d2e611a
 CP2K| cp2kflags: omp libint fftw3 libxc parallel scalapack max_contr=4         
 CP2K| is freely available from                            https://www.cp2k.org/
 CP2K| Program compiled at                       Thu 06 Mar 2025 05:09:20 PM CET
 CP2K| Program compiled on                                               login02
 CP2K| Program compiled for                                        Supermuc-foss
 CP2K| Data directory path                  /hppfs/work/pn36zo/di38fab/cp2k/data
 CP2K| Input file name                                                    GW.inp

 GLOBAL| Force Environment number                                              1
 GLOBAL| Basis set file name            /hppfs/scratch/04/di38fab/04_TMD/BASIS_A
 GLOBAL| Potential file name            /hppfs/work/pn36zo/di38fab/cp2k/data/ALL
 GLOBAL| MM Potential file name                                     MM_POTENTIAL
 GLOBAL| Coordinate file name                                      __STD_INPUT__
 GLOBAL| Method name                                                        CP2K
 GLOBAL| Project name                                                       MoS2
 GLOBAL| Run type                                                         ENERGY
 GLOBAL| FFT library                                                       FFTW3
 GLOBAL| Diagonalization library                                       ScaLAPACK
 GLOBAL| DGEMM library                                                      BLAS
 GLOBAL| Orthonormality check for eigenvectors                          DISABLED
 GLOBAL| Matrix multiplication library                                 ScaLAPACK
 GLOBAL| All-to-all communication in single precision                          F
 GLOBAL| FFTs using library dependent lengths                                  F
 GLOBAL| Grid backend                                                       AUTO
 GLOBAL| Global print level                                               MEDIUM
 GLOBAL| MPI I/O enabled                                                       T
 GLOBAL| Total number of message passing processes                            24
 GLOBAL| Number of threads for this process                                    4
 GLOBAL| This output is from process                                           0
 GLOBAL| OpenMP stack size per thread (OMP_STACKSIZE)                    default
 GLOBAL| CPU model name             Intel(R) Xeon(R) Platinum 8174 CPU @ 3.10GHz

 MEMORY| system memory details [Kb]
 MEMORY|                        rank 0           min           max       average
 MEMORY| MemTotal             98436664      98436644      98436664      98436654
 MEMORY| MemFree              83857440      83857440      84096672      83977056
 MEMORY| Buffers                     0             0             0             0
 MEMORY| Cached                2392680       2392680       2401736       2397208
 MEMORY| Slab                  1221380       1221380       1273676       1247528
 MEMORY| SReclaimable           267020        267020        277716        272368
 MEMORY| MemLikelyFree        86517140      86517140      86776124      86646632


 *** Fundamental physical constants (SI units) ***

 *** Literature: B. J. Mohr and B. N. Taylor,
 ***             CODATA recommended values of the fundamental physical
 ***             constants: 2006, Web Version 5.1
 ***             http://physics.nist.gov/constants

 Speed of light in vacuum [m/s]                             2.99792458000000E+08
 Magnetic constant or permeability of vacuum [N/A**2]       1.25663706143592E-06
 Electric constant or permittivity of vacuum [F/m]          8.85418781762039E-12
 Planck constant (h) [J*s]                                  6.62606896000000E-34
 Planck constant (h-bar) [J*s]                              1.05457162825177E-34
 Elementary charge [C]                                      1.60217648700000E-19
 Electron mass [kg]                                         9.10938215000000E-31
 Electron g factor [ ]                                     -2.00231930436220E+00
 Proton mass [kg]                                           1.67262163700000E-27
 Fine-structure constant                                    7.29735253760000E-03
 Rydberg constant [1/m]                                     1.09737315685270E+07
 Avogadro constant [1/mol]                                  6.02214179000000E+23
 Boltzmann constant [J/K]                                   1.38065040000000E-23
 Atomic mass unit [kg]                                      1.66053878200000E-27
 Bohr radius [m]                                            5.29177208590000E-11

 *** Conversion factors ***

 [u] -> [a.u.]                                              1.82288848426455E+03
 [Angstrom] -> [Bohr] = [a.u.]                              1.88972613288564E+00
 [a.u.] = [Bohr] -> [Angstrom]                              5.29177208590000E-01
 [a.u.] -> [s]                                              2.41888432650478E-17
 [a.u.] -> [fs]                                             2.41888432650478E-02
 [a.u.] -> [J]                                              4.35974393937059E-18
 [a.u.] -> [N]                                              8.23872205491840E-08
 [a.u.] -> [K]                                              3.15774647902944E+05
 [a.u.] -> [kJ/mol]                                         2.62549961709828E+03
 [a.u.] -> [kcal/mol]                                       6.27509468713739E+02
 [a.u.] -> [Pa]                                             2.94210107994716E+13
 [a.u.] -> [bar]                                            2.94210107994716E+08
 [a.u.] -> [atm]                                            2.90362800883016E+08
 [a.u.] -> [eV]                                             2.72113838565563E+01
 [a.u.] -> [Hz]                                             6.57968392072181E+15
 [a.u.] -> [1/cm] (wave numbers)                            2.19474631370540E+05
 [a.u./Bohr**2] -> [1/cm]                                   5.14048714338585E+03
 

 CELL_TOP| Volume [angstrom^3]:                                     27000.000000
 CELL_TOP| Vector a [angstrom    30.000     0.000     0.000   |a| =    30.000000
 CELL_TOP| Vector b [angstrom     0.000    30.000     0.000   |b| =    30.000000
 CELL_TOP| Vector c [angstrom     0.000     0.000    30.000   |c| =    30.000000
 CELL_TOP| Angle (b,c), alpha [degree]:                                90.000000
 CELL_TOP| Angle (a,c), beta  [degree]:                                90.000000
 CELL_TOP| Angle (a,b), gamma [degree]:                                90.000000
 CELL_TOP| Numerically orthorhombic:                                         YES
 CELL_TOP| Periodicity                                                      NONE

 GENERATE|  Preliminary Number of Bonds generated:                             0
 GENERATE|  Achieved consistency in connectivity generation.

 CELL| Volume [angstrom^3]:                                         27000.000000
 CELL| Vector a [angstrom]:      30.000     0.000     0.000   |a| =    30.000000
 CELL| Vector b [angstrom]:       0.000    30.000     0.000   |b| =    30.000000
 CELL| Vector c [angstrom]:       0.000     0.000    30.000   |c| =    30.000000
 CELL| Angle (b,c), alpha [degree]:                                    90.000000
 CELL| Angle (a,c), beta  [degree]:                                    90.000000
 CELL| Angle (a,b), gamma [degree]:                                    90.000000
 CELL| Numerically orthorhombic:                                             YES
 CELL| Periodicity                                                          NONE

 CELL_REF| Volume [angstrom^3]:                                     27000.000000
 CELL_REF| Vector a [angstrom    30.000     0.000     0.000   |a| =    30.000000
 CELL_REF| Vector b [angstrom     0.000    30.000     0.000   |b| =    30.000000
 CELL_REF| Vector c [angstrom     0.000     0.000    30.000   |c| =    30.000000
 CELL_REF| Angle (b,c), alpha [degree]:                                90.000000
 CELL_REF| Angle (a,c), beta  [degree]:                                90.000000
 CELL_REF| Angle (a,b), gamma [degree]:                                90.000000
 CELL_REF| Numerically orthorhombic:                                         YES
 CELL_REF| Periodicity                                                      NONE

 *******************************************************************************
 *******************************************************************************
 **                                                                           **
 **     #####                         ##              ##                      **
 **    ##   ##            ##          ##              ##                      **
 **   ##     ##                       ##            ######                    **
 **   ##     ##  ##   ##  ##   #####  ##  ##   ####   ##    #####    #####    **
 **   ##     ##  ##   ##  ##  ##      ## ##   ##      ##   ##   ##  ##   ##   **
 **   ##  ## ##  ##   ##  ##  ##      ####     ###    ##   ######   ######    **
 **    ##  ###   ##   ##  ##  ##      ## ##      ##   ##   ##       ##        **
 **     #######   #####   ##   #####  ##  ##  ####    ##    #####   ##        **
 **           ##                                                    ##        **
 **                                                                           **
 **                                                ... make the atoms dance   **
 **                                                                           **
 **            Copyright (C) by CP2K developers group (2000-2025)             **
 **                      J. Chem. Phys. 152, 194103 (2020)                    **
 **                                                                           **
 *******************************************************************************

 DFT| Spin restricted Kohn-Sham (RKS) calculation                            RKS
 DFT| Multiplicity                                                             1
 DFT| Number of spin states                                                    1
 DFT| Charge                                                                   0
 DFT| Self-interaction correction (SIC)                                       NO
 DFT| Cutoffs: density                                              1.000000E-10
 DFT|          gradient                                             1.000000E-10
 DFT|          tau                                                  1.000000E-10
 DFT|          cutoff_smoothing_range                               0.000000E+00
 DFT| XC density smoothing                                                  NONE
 DFT| XC derivatives                                                          PW

 FUNCTIONAL| PBE:
 FUNCTIONAL| J.P.Perdew, K.Burke, M.Ernzerhof, Phys. Rev. Letter, vol. 77, n 18,
 FUNCTIONAL|  pp. 3865-3868, (1996)sx=0.750sc=1.000{spin unpolarized}           


 QS| Method:                                                                GAPW
 QS| Density plane wave grid type                        NON-SPHERICAL FULLSPACE
 QS| Number of grid levels:                                                    4
 QS| Density cutoff [a.u.]:                                                250.0
 QS| Multi grid cutoff [a.u.]: 1) grid level                               250.0
 QS|                           2) grid level                                83.3
 QS|                           3) grid level                                27.8
 QS|                           4) grid level                                 9.3
 QS| Grid level progression factor:                                          3.0
 QS| Relative density cutoff [a.u.]:                                        50.0
 QS| Interaction thresholds: eps_pgf_orb:                                1.0E-12
 QS|                         eps_filter_matrix:                          0.0E+00
 QS|                         eps_core_charge:                            1.0E-14
 QS|                         eps_rho_gspace:                             1.0E-12
 QS|                         eps_rho_rspace:                             1.0E-12
 QS|                         eps_gvg_rspace:                             1.0E-06
 QS|                         eps_ppl:                                    1.0E-02
 QS|                         eps_ppnl:                                   1.0E-08
 QS| GAPW|      One center basis from orbital basis primitives
 QS| GAPW|                   eps_fit:                                    1.0E-04
 QS| GAPW|                   eps_iso:                                    1.0E-12
 QS| GAPW|                   eps_svd:                                    1.0E-08
 QS| GAPW|                   eps_cpc:                                    1.0E-12
 QS| GAPW|   atom-r-grid: quadrature:                                     GC_LOG
 QS| GAPW|      atom-s-grid:  max l :                                          4
 QS| GAPW|      max_l_rho0 :                                                   2


 ATOMIC KIND INFORMATION

  1. Atomic kind: B                                     Number of atoms:       1

     Orbital Basis Set                                         aug-SZV-MOLOPT-ae

       Number of orbital shell sets:                                           2
       Number of orbital shells:                                               6
       Number of primitive Cartesian functions:                               13
       Number of Cartesian basis functions:                                   15
       Number of spherical basis functions:                                   14
       Norm type:                                                              2

       Normalised Cartesian orbitals:

                        Set   Shell   Orbital            Exponent    Coefficient

                          1       1    1s                0.109280       0.032606
                                                         0.155613       0.000000
                                                         0.238409       0.144712
                                                         0.548949       0.113742
                                                         1.426820      -0.031435
                                                         4.590809      -0.105038
                                                        23.194561      -0.099829

                          1       2    2s                0.109280      -0.049098
                                                         0.155613      -0.119813
                                                         0.238409      -0.025283
                                                         0.548949       0.056653
                                                         1.426820       0.132404
                                                         4.590809       0.000000
                                                        23.194561       0.000000

                          1       3    2px               0.109280       0.009109
                                                         0.155613       0.000000
                                                         0.238409       0.101125
                                                         0.548949       0.281559
                                                         1.426820       0.386539
                                                         4.590809       0.360915
                                                        23.194561       0.272788
                          1       3    2py               0.109280       0.009109
                                                         0.155613       0.000000
                                                         0.238409       0.101125
                                                         0.548949       0.281559
                                                         1.426820       0.386539
                                                         4.590809       0.360915
                                                        23.194561       0.272788
                          1       3    2pz               0.109280       0.009109
                                                         0.155613       0.000000
                                                         0.238409       0.101125
                                                         0.548949       0.281559
                                                         1.426820       0.386539
                                                         4.590809       0.360915
                                                        23.194561       0.272788

                          1       4    3px               0.109280       0.062233
                                                         0.155613       0.035668
                                                         0.238409       0.015304
                                                         0.548949      -0.003054
                                                         1.426820       0.021875
                                                         4.590809       0.000000
                                                        23.194561       0.000000
                          1       4    3py               0.109280       0.062233
                                                         0.155613       0.035668
                                                         0.238409       0.015304
                                                         0.548949      -0.003054
                                                         1.426820       0.021875
                                                         4.590809       0.000000
                                                        23.194561       0.000000
                          1       4    3pz               0.109280       0.062233
                                                         0.155613       0.035668
                                                         0.238409       0.015304
                                                         0.548949      -0.003054
                                                         1.426820       0.021875
                                                         4.590809       0.000000
                                                        23.194561       0.000000

                          1       5    3dx2              0.109280       0.000986
                                                         0.155613       0.002022
                                                         0.238409       0.109458
                                                         0.548949       0.095099
                                                         1.426820       0.028232
                                                         4.590809       0.000000
                                                        23.194561       0.000000
                          1       5    3dxy              0.109280       0.001708
                                                         0.155613       0.003503
                                                         0.238409       0.189586
                                                         0.548949       0.164717
                                                         1.426820       0.048900
                                                         4.590809       0.000000
                                                        23.194561       0.000000
                          1       5    3dxz              0.109280       0.001708
                                                         0.155613       0.003503
                                                         0.238409       0.189586
                                                         0.548949       0.164717
                                                         1.426820       0.048900
                                                         4.590809       0.000000
                                                        23.194561       0.000000
                          1       5    3dy2              0.109280       0.000986
                                                         0.155613       0.002022
                                                         0.238409       0.109458
                                                         0.548949       0.095099
                                                         1.426820       0.028232
                                                         4.590809       0.000000
                                                        23.194561       0.000000
                          1       5    3dyz              0.109280       0.001708
                                                         0.155613       0.003503
                                                         0.238409       0.189586
                                                         0.548949       0.164717
                                                         1.426820       0.048900
                                                         4.590809       0.000000
                                                        23.194561       0.000000
                          1       5    3dz2              0.109280       0.000986
                                                         0.155613       0.002022
                                                         0.238409       0.109458
                                                         0.548949       0.095099
                                                         1.426820       0.028232
                                                         4.590809       0.000000
                                                        23.194561       0.000000

                          2       1    1s              506.011837       0.696781
                                                        92.776716       1.051665
                                                        25.955582       1.381280
                                                         8.916443       1.362748
                                                         3.462516       0.753460
                                                         1.426055       0.121219

     RI Auxiliary Basis Set             RI_aug-SZV-MOLOPT-ae_N_RI_025_s_p_d_f_g_

       Number of orbital shell sets:                                           9
       Number of orbital shells:                                               9
       Number of primitive Cartesian functions:                                9
       Number of Cartesian basis functions:                                   29
       Number of spherical basis functions:                                   25
       Norm type:                                                              2

       Normalised Cartesian orbitals:

                        Set   Shell   Orbital            Exponent    Coefficient

                          1       1    1s                0.250341       0.252237

                          2       1    5px               0.273284       0.281648
                          2       1    5py               0.273284       0.281648
                          2       1    5pz               0.273284       0.281648

                          3       1    8dx2              0.455299       0.415363
                          3       1    8dxy              0.455299       0.719430
                          3       1    8dxz              0.455299       0.719430
                          3       1    8dy2              0.455299       0.415363
                          3       1    8dyz              0.455299       0.719430
                          3       1    8dz2              0.455299       0.415363

                          4       1    9fx3              0.675974       0.609953
                          4       1    9fx2y             0.675974       1.363897
                          4       1    9fx2z             0.675974       1.363897
                          4       1    9fxy2             0.675974       1.363897
                          4       1    9fxyz             0.675974       2.362339
                          4       1    9fxz2             0.675974       1.363897
                          4       1    9fy3              0.675974       0.609953
                          4       1    9fy2z             0.675974       1.363897
                          4       1    9fyz2             0.675974       1.363897
                          4       1    9fz3              0.675974       0.609953

                          5       1    6px               0.737183       0.973664
                          5       1    6py               0.737183       0.973664
                          5       1    6pz               0.737183       0.973664

                          6       1    2s                0.787813       0.595974

                          7       1    3s                5.974522       2.723563

                          8       1    7px               7.247300      16.949636
                          8       1    7py               7.247300      16.949636
                          8       1    7pz               7.247300      16.949636

                          9       1    4s               47.432595      12.881539

       Atomic covalent radius [Angstrom]:                                  0.820

       Atomic van der Waals radius [Angstrom]:                             1.920

     The atoms of this atomic kind are PAW atoms (GAPW):
       Hard Gaussian function radius:                                      1.512
       Rho0 radius:                                                        1.512
       Maximum GTO radius used for PAW projector construction:            24.566

     GAPW Soft Basis Set                                  aug-SZV-MOLOPT-ae_soft

       Number of orbital shell sets:                                           2
       Number of orbital shells:                                               6
       Number of primitive Cartesian functions:                                7
       Number of Cartesian basis functions:                                   15
       Number of spherical basis functions:                                   14
       Norm type:                                                              2

       Normalised Cartesian orbitals:

                        Set   Shell   Orbital            Exponent    Coefficient

                          1       1    1s                0.109280       0.032606
                                                         0.155613       0.000000
                                                         0.238409       0.144712
                                                         0.548949       0.113742
                                                         1.426820      -0.031435

                          1       2    2s                0.109280      -0.049098
                                                         0.155613      -0.119813
                                                         0.238409      -0.025283
                                                         0.548949       0.056653
                                                         1.426820       0.132404

                          1       3    2px               0.109280       0.009109
                                                         0.155613       0.000000
                                                         0.238409       0.101125
                                                         0.548949       0.281559
                                                         1.426820       0.386539
                          1       3    2py               0.109280       0.009109
                                                         0.155613       0.000000
                                                         0.238409       0.101125
                                                         0.548949       0.281559
                                                         1.426820       0.386539
                          1       3    2pz               0.109280       0.009109
                                                         0.155613       0.000000
                                                         0.238409       0.101125
                                                         0.548949       0.281559
                                                         1.426820       0.386539

                          1       4    3px               0.109280       0.062233
                                                         0.155613       0.035668
                                                         0.238409       0.015304
                                                         0.548949      -0.003054
                                                         1.426820       0.021875
                          1       4    3py               0.109280       0.062233
                                                         0.155613       0.035668
                                                         0.238409       0.015304
                                                         0.548949      -0.003054
                                                         1.426820       0.021875
                          1       4    3pz               0.109280       0.062233
                                                         0.155613       0.035668
                                                         0.238409       0.015304
                                                         0.548949      -0.003054
                                                         1.426820       0.021875

                          1       5    3dx2              0.109280       0.000986
                                                         0.155613       0.002022
                                                         0.238409       0.109458
                                                         0.548949       0.095099
                                                         1.426820       0.028232
                          1       5    3dxy              0.109280       0.001708
                                                         0.155613       0.003503
                                                         0.238409       0.189586
                                                         0.548949       0.164717
                                                         1.426820       0.048900
                          1       5    3dxz              0.109280       0.001708
                                                         0.155613       0.003503
                                                         0.238409       0.189586
                                                         0.548949       0.164717
                                                         1.426820       0.048900
                          1       5    3dy2              0.109280       0.000986
                                                         0.155613       0.002022
                                                         0.238409       0.109458
                                                         0.548949       0.095099
                                                         1.426820       0.028232
                          1       5    3dyz              0.109280       0.001708
                                                         0.155613       0.003503
                                                         0.238409       0.189586
                                                         0.548949       0.164717
                                                         1.426820       0.048900
                          1       5    3dz2              0.109280       0.000986
                                                         0.155613       0.002022
                                                         0.238409       0.109458
                                                         0.548949       0.095099
                                                         1.426820       0.028232

                          2       1    1s                3.462516       0.753460
                                                         1.426055       0.121219

     AE Potential information for                                            ALL

       Description:                                       All-electron potential
                                          Krack, Parrinello, PCCP 2, 2105 (2000)

       Gaussian exponent of the core charge distribution:               2.655410
       Electronic configuration (s p d ...):                           4   1   0

  2. Atomic kind: N                                     Number of atoms:       1

     Orbital Basis Set                                      aug-SZV-MOLOPT-ae-SR

       Number of orbital shell sets:                                           2
       Number of orbital shells:                                               6
       Number of primitive Cartesian functions:                                7
       Number of Cartesian basis functions:                                   15
       Number of spherical basis functions:                                   14
       Norm type:                                                              2

       Normalised Cartesian orbitals:

                        Set   Shell   Orbital            Exponent    Coefficient

                          1       1    1s                0.112012       0.000000
                                                         0.285714       0.194997
                                                         0.878497       0.258372
                                                         3.780456      -0.193164

                          1       2    2s                0.112012       0.083551
                                                         0.285714      -0.189186
                                                         0.878497      -0.469875
                                                         3.780456      -0.002085

                          1       3    2px               0.112012       0.000000
                                                         0.285714       0.116706
                                                         0.878497       0.736704
                                                         3.780456       1.171553
                          1       3    2py               0.112012       0.000000
                                                         0.285714       0.116706
                                                         0.878497       0.736704
                                                         3.780456       1.171553
                          1       3    2pz               0.112012       0.000000
                                                         0.285714       0.116706
                                                         0.878497       0.736704
                                                         3.780456       1.171553

                          1       4    3px               0.112012       0.141957
                                                         0.285714      -0.286713
                                                         0.878497       0.074784
                                                         3.780456       0.008085
                          1       4    3py               0.112012       0.141957
                                                         0.285714      -0.286713
                                                         0.878497       0.074784
                                                         3.780456       0.008085
                          1       4    3pz               0.112012       0.141957
                                                         0.285714      -0.286713
                                                         0.878497       0.074784
                                                         3.780456       0.008085

                          1       5    3dx2              0.112012      -0.000364
                                                         0.285714       0.186009
                                                         0.878497      -0.044751
                                                         3.780456       1.815169
                          1       5    3dxy              0.112012      -0.000630
                                                         0.285714       0.322177
                                                         0.878497      -0.077512
                                                         3.780456       3.143965
                          1       5    3dxz              0.112012      -0.000630
                                                         0.285714       0.322177
                                                         0.878497      -0.077512
                                                         3.780456       3.143965
                          1       5    3dy2              0.112012      -0.000364
                                                         0.285714       0.186009
                                                         0.878497      -0.044751
                                                         3.780456       1.815169
                          1       5    3dyz              0.112012      -0.000630
                                                         0.285714       0.322177
                                                         0.878497      -0.077512
                                                         3.780456       3.143965
                          1       5    3dz2              0.112012      -0.000364
                                                         0.285714       0.186009
                                                         0.878497      -0.044751
                                                         3.780456       1.815169

                          2       1    1s               99.106169       3.454881
                                                        18.052312       3.341410
                                                         4.885660       1.041372

     RI Auxiliary Basis Set             RI_aug-SZV-MOLOPT-ae-SR_N_RI_036_s_p_d_f

       Number of orbital shell sets:                                          12
       Number of orbital shells:                                              12
       Number of primitive Cartesian functions:                               12
       Number of Cartesian basis functions:                                   42
       Number of spherical basis functions:                                   36
       Norm type:                                                              2

       Normalised Cartesian orbitals:

                        Set   Shell   Orbital            Exponent    Coefficient

                          1       1    1s                0.362114       0.332693

                          2       1    6px               0.499696       0.598857
                          2       1    6py               0.499696       0.598857
                          2       1    6pz               0.499696       0.598857

                          3       1    9dx2              0.588659       0.651135
                          3       1    9dxy              0.588659       1.127800
                          3       1    9dxz              0.588659       1.127800
                          3       1    9dy2              0.588659       0.651135
                          3       1    9dyz              0.588659       1.127800
                          3       1    9dz2              0.588659       0.651135

                          4       1    2s                0.631634       0.504963

                          5       1   12fx3              0.736605       0.740002
                          5       1   12fx2y             0.736605       1.654695
                          5       1   12fx2z             0.736605       1.654695
                          5       1   12fxy2             0.736605       1.654695
                          5       1   12fxyz             0.736605       2.866016
                          5       1   12fxz2             0.736605       1.654695
                          5       1   12fy3              0.736605       0.740002
                          5       1   12fy2z             0.736605       1.654695
                          5       1   12fyz2             0.736605       1.654695
                          5       1   12fz3              0.736605       0.740002

                          6       1    7px               0.883396       1.220771
                          6       1    7py               0.883396       1.220771
                          6       1    7pz               0.883396       1.220771

                          7       1   10dx2              1.153946       2.114628
                          7       1   10dxy              1.153946       3.662643
                          7       1   10dxz              1.153946       3.662643
                          7       1   10dy2              1.153946       2.114628
                          7       1   10dyz              1.153946       3.662643
                          7       1   10dz2              1.153946       2.114628

                          8       1    3s                2.978947       1.616059

                          9       1    8px               4.407746       9.103549
                          9       1    8py               4.407746       9.103549
                          9       1    8pz               4.407746       9.103549

                         10       1   11dx2              5.691883      34.522914
                         10       1   11dxy              5.691883      59.795442
                         10       1   11dxz              5.691883      59.795442
                         10       1   11dy2              5.691883      34.522914
                         10       1   11dyz              5.691883      59.795442
                         10       1   11dz2              5.691883      34.522914

                         11       1    4s               18.342052       6.316784

                         12       1    5s              106.308958      23.595951

       Atomic covalent radius [Angstrom]:                                  0.750

       Atomic van der Waals radius [Angstrom]:                             1.550

     The atoms of this atomic kind are PAW atoms (GAPW):
       Hard Gaussian function radius:                                      1.512
       Rho0 radius:                                                        1.512
       Maximum GTO radius used for PAW projector construction:            24.566

     GAPW Soft Basis Set                               aug-SZV-MOLOPT-ae-SR_soft

       Number of orbital shell sets:                                           2
       Number of orbital shells:                                               6
       Number of primitive Cartesian functions:                                4
       Number of Cartesian basis functions:                                   15
       Number of spherical basis functions:                                   14
       Norm type:                                                              2

       Normalised Cartesian orbitals:

                        Set   Shell   Orbital            Exponent    Coefficient

                          1       1    1s                0.112012       0.000000
                                                         0.285714       0.194997
                                                         0.878497       0.258372
                                                         3.780456      -0.193164

                          1       2    2s                0.112012       0.083551
                                                         0.285714      -0.189186
                                                         0.878497      -0.469875
                                                         3.780456      -0.002085

                          1       3    2px               0.112012       0.000000
                                                         0.285714       0.116706
                                                         0.878497       0.736704
                                                         3.780456       1.171553
                          1       3    2py               0.112012       0.000000
                                                         0.285714       0.116706
                                                         0.878497       0.736704
                                                         3.780456       1.171553
                          1       3    2pz               0.112012       0.000000
                                                         0.285714       0.116706
                                                         0.878497       0.736704
                                                         3.780456       1.171553

                          1       4    3px               0.112012       0.141957
                                                         0.285714      -0.286713
                                                         0.878497       0.074784
                                                         3.780456       0.008085
                          1       4    3py               0.112012       0.141957
                                                         0.285714      -0.286713
                                                         0.878497       0.074784
                                                         3.780456       0.008085
                          1       4    3pz               0.112012       0.141957
                                                         0.285714      -0.286713
                                                         0.878497       0.074784
                                                         3.780456       0.008085

                          1       5    3dx2              0.112012      -0.000364
                                                         0.285714       0.186009
                                                         0.878497      -0.044751
                                                         3.780456       1.815169
                          1       5    3dxy              0.112012      -0.000630
                                                         0.285714       0.322177
                                                         0.878497      -0.077512
                                                         3.780456       3.143965
                          1       5    3dxz              0.112012      -0.000630
                                                         0.285714       0.322177
                                                         0.878497      -0.077512
                                                         3.780456       3.143965
                          1       5    3dy2              0.112012      -0.000364
                                                         0.285714       0.186009
                                                         0.878497      -0.044751
                                                         3.780456       1.815169
                          1       5    3dyz              0.112012      -0.000630
                                                         0.285714       0.322177
                                                         0.878497      -0.077512
                                                         3.780456       3.143965
                          1       5    3dz2              0.112012      -0.000364
                                                         0.285714       0.186009
                                                         0.878497      -0.044751
                                                         3.780456       1.815169

                          2       1    1s         

     AE Potential information for                                            ALL

       Description:                                       All-electron potential
                                          Krack, Parrinello, PCCP 2, 2105 (2000)

       Gaussian exponent of the core charge distribution:               5.979100
       Electronic configuration (s p d ...):                           4   3   0


 MOLECULE KIND INFORMATION


 All atoms are their own molecule, skipping detailed information


 TOTAL NUMBERS AND MAXIMUM NUMBERS

  Total number of            - Atomic kinds:                                   2
                             - Atoms:                                          2
                             - Shell sets:                                     4
                             - Shells:                                        12
                             - Primitive Cartesian functions:                 20
                             - Cartesian basis functions:                     30
                             - Spherical basis functions:                     28

  Maximum angular momentum of the orbital basis functions:                     2


 MODULE QUICKSTEP: ATOMIC COORDINATES IN ANGSTROM

   Atom Kind Element         X             Y             Z       Z(eff)     Mass
      1    1 B     5     14.334900     15.000000     15.000000   5.0000  10.8110
      2    2 N     7     15.665100     15.000000     15.000000   7.0000  14.0067



 SCF PARAMETERS         Density guess:                                    ATOMIC
                        --------------------------------------------------------
                        max_scf:                                             500
                        max_scf_history:                                       0
                        max_diis:                                              4
                        --------------------------------------------------------
                        eps_scf:                                        1.00E-06
                        eps_scf_history:                                0.00E+00
                        eps_diis:                                       1.00E-01
                        eps_eigval:                                     1.00E-05
                        --------------------------------------------------------
                        level_shift [a.u.]:                             0.000000
                        added MOs                                        22    0
                        --------------------------------------------------------
                        Mixing method:                            BROYDEN_MIXING
                                                charge density mixing in g-space
                        --------------------------------------------------------
                        No outer SCF

 PW_GRID| Information for grid number                                          1
 PW_GRID| Grid distributed over                                    24 processors
 PW_GRID| Real space group dimensions                                    24    1
 PW_GRID| the grid is blocked:                                                NO
 PW_GRID| Cutoff [a.u.]                                                    250.0
 PW_GRID| spherical cutoff:                                                   NO
 PW_GRID|   Bounds   1           -202     202                Points:         405
 PW_GRID|   Bounds   2           -202     202                Points:         405
 PW_GRID|   Bounds   3           -202     202                Points:         405
 PW_GRID| Volume element (a.u.^3)  0.2743E-02     Volume (a.u.^3)    182205.0337
 PW_GRID| Grid span                                                    FULLSPACE
 PW_GRID|   Distribution                         Average         Max         Min
 PW_GRID|   G-Vectors                          2767921.9     2768175     2767770
 PW_GRID|   G-Rays                                6834.4        6835        6834
 PW_GRID|   Real Space Points                  2767921.9     2788425     2624400

 PW_GRID| Information for grid number                                          2
 PW_GRID| Number of the reference grid                                         1
 PW_GRID| Grid distributed over                                    24 processors
 PW_GRID| Real space group dimensions                                    24    1
 PW_GRID| the grid is blocked:                                                NO
 PW_GRID| Cutoff [a.u.]                                                     83.3
 PW_GRID| spherical cutoff:                                                   NO
 PW_GRID|   Bounds   1           -120     119                Points:         240
 PW_GRID|   Bounds   2           -120     119                Points:         240
 PW_GRID|   Bounds   3           -120     119                Points:         240
 PW_GRID| Volume element (a.u.^3)  0.1318E-01     Volume (a.u.^3)    182205.0337
 PW_GRID| Grid span                                                    FULLSPACE
 PW_GRID|   Distribution                         Average         Max         Min
 PW_GRID|   G-Vectors                           576000.0      576240      575760
 PW_GRID|   G-Rays                                2400.0        2401        2399
 PW_GRID|   Real Space Points                   576000.0      576000      576000

 PW_GRID| Information for grid number                                          3
 PW_GRID| Number of the reference grid                                         1
 PW_GRID| Grid distributed over                                    24 processors
 PW_GRID| Real space group dimensions                                    24    1
 PW_GRID| the grid is blocked:                                                NO
 PW_GRID| Cutoff [a.u.]                                                     27.8
 PW_GRID| spherical cutoff:                                                   NO
 PW_GRID|   Bounds   1            -67      67                Points:         135
 PW_GRID|   Bounds   2            -67      67                Points:         135
 PW_GRID|   Bounds   3            -67      67                Points:         135
 PW_GRID| Volume element (a.u.^3)  0.7406E-01     Volume (a.u.^3)    182205.0337
 PW_GRID| Grid span                                                    FULLSPACE
 PW_GRID|   Distribution                         Average         Max         Min
 PW_GRID|   G-Vectors                           102515.6      102735      102330
 PW_GRID|   G-Rays                                 759.4         761         758
 PW_GRID|   Real Space Points                   102515.6      109350       91125

 PW_GRID| Information for grid number                                          4
 PW_GRID| Number of the reference grid                                         1
 PW_GRID| Grid distributed over                                    24 processors
 PW_GRID| Real space group dimensions                                    24    1
 PW_GRID| the grid is blocked:                                                NO
 PW_GRID| Cutoff [a.u.]                                                      9.3
 PW_GRID| spherical cutoff:                                                   NO
 PW_GRID|   Bounds   1            -40      39                Points:          80
 PW_GRID|   Bounds   2            -40      39                Points:          80
 PW_GRID|   Bounds   3            -40      39                Points:          80
 PW_GRID| Volume element (a.u.^3)  0.3559         Volume (a.u.^3)    182205.0337
 PW_GRID| Grid span                                                    FULLSPACE
 PW_GRID|   Distribution                         Average         Max         Min
 PW_GRID|   G-Vectors                            21333.3       21360       21280
 PW_GRID|   G-Rays                                 266.7         267         266
 PW_GRID|   Real Space Points                    21333.3       25600       19200

 POISSON| Solver                                                         WAVELET
 POISSON| Wavelet| Scaling function                                           40
 POISSON| Periodicity                                                       NONE

 RS_GRID| Information for grid number                                          1
 RS_GRID|   Bounds   1           -202     202                Points:         405
 RS_GRID|   Bounds   2           -202     202                Points:         405
 RS_GRID|   Bounds   3           -202     202                Points:         405
 RS_GRID| Real space distribution over                                  4 groups
 RS_GRID| Real space distribution along direction                              2
 RS_GRID| Border size                                                         35
 RS_GRID| Real space distribution over                                  6 groups
 RS_GRID| Real space distribution along direction                              3
 RS_GRID| Border size                                                         35
 RS_GRID|   Distribution                         Average         Max         Min
 RS_GRID|   Planes                                 171.2         172         171
 RS_GRID|   Distribution                         Average         Max         Min
 RS_GRID|   Planes                                 137.5         138         137

 RS_GRID| Information for grid number                                          2
 RS_GRID|   Bounds   1           -120     119                Points:         240
 RS_GRID|   Bounds   2           -120     119                Points:         240
 RS_GRID|   Bounds   3           -120     119                Points:         240
 RS_GRID| Real space distribution over                                  4 groups
 RS_GRID| Real space distribution along direction                              2
 RS_GRID| Border size                                                         37
 RS_GRID| Real space distribution over                                  6 groups
 RS_GRID| Real space distribution along direction                              3
 RS_GRID| Border size                                                         37
 RS_GRID|   Distribution                         Average         Max         Min
 RS_GRID|   Planes                                 134.0         134         134
 RS_GRID|   Distribution                         Average         Max         Min
 RS_GRID|   Planes                                 114.0         114         114

 RS_GRID| Information for grid number                                          3
 RS_GRID|   Bounds   1            -67      67                Points:         135
 RS_GRID|   Bounds   2            -67      67                Points:         135
 RS_GRID|   Bounds   3            -67      67                Points:         135
 RS_GRID| Real space fully replicated
 RS_GRID| Group size                                                           1

 RS_GRID| Information for grid number                                          4
 RS_GRID|   Bounds   1            -40      39                Points:          80
 RS_GRID|   Bounds   2            -40      39                Points:          80
 RS_GRID|   Bounds   3            -40      39                Points:          80
 RS_GRID| Real space fully replicated
 RS_GRID| Group size                                                           1

  HFX_INFO| Replica ID:                                                        1
  HFX_INFO| FRACTION:                                               0.2500000000
  HFX_INFO| Interaction Potential:                                       COULOMB
  HFX_INFO| EPS_SCHWARZ:                                                 1.0E-10
  HFX_INFO| EPS_SCHWARZ_FORCES                                           1.0E-08
  HFX_INFO| EPS_STORAGE_SCALING:                                         1.0E+00
  HFX_INFO| NBINS:                                                            64
  HFX_INFO| BLOCK_SIZE:                                                        1
  HFX_INFO| Number of periodic shells considered:                           NONE
  HFX_INFO| Number of periodic cells considered:                            NONE

 
 RI-RPA| using GPW style
 

 OVERLAP MATRIX CONDITION NUMBER
 1-Norm Condition Number (Estimate)
   CN : |A|*|A^-1|:  4.692E+000 *  1.758E+002   = 8.250E+002  Log(1-CN):  2.9165
 1-Norm and 2-Norm Condition Numbers using Diagonalization
   CN : |A|*|A^-1|:  4.692E+000 *  1.758E+002   = 8.250E+002  Log(1-CN):  2.9165
   CN : max/min ev:  3.171E+000 /  9.612E-003   = 3.299E+002  Log(2-CN):  2.5183

 Number of electrons:                                                         12
 Number of occupied orbitals:                                                  6
 Number of molecular orbitals:                                                28

 Number of orbital functions:                                                 28
 Number of independent orbital functions:                                     28

 Extrapolation method: initial_guess

 Atomic guess: The first density matrix is obtained in terms of atomic orbitals
               and electronic configurations assigned to each atomic kind

 Guess for atomic kind: B

 Electronic structure
    Total number of core electrons                                          0.00
    Total number of valence electrons                                       5.00
    Total number of electrons                                               5.00
    Multiplicity                                                   not specified
    S      2.00  2.00
    P      1.00


 *******************************************************************************
                  Iteration          Convergence                     Energy [au]
 *******************************************************************************
                          1        0.612489E-01                 -24.304439508901
                          2        0.220484E-01                 -24.305945213911
                          3        0.367076E-03                 -24.306247196960
                          4        0.456899E-05                 -24.306247340970
                          5        0.241868E-07                 -24.306247340986

 Energy components [Hartree]           Total Energy ::          -24.306247340986
                                        Band Energy ::          -13.825803348850
                                     Kinetic Energy ::           23.970530113188
                                   Potential Energy ::          -48.276777454174
                                      Virial (-V/T) ::            2.014005415242
                                        Core Energy ::          -32.361048727638
                                          XC Energy ::           -3.546375173816
                                     Coulomb Energy ::           11.601176560468

 Orbital energies  State     L     Occupation   Energy[a.u.]          Energy[eV]

                       1     0          2.000      -6.531739         -177.737651
                       2     0          2.000      -0.324835           -8.839199

                       1     1          1.000      -0.112657           -3.065543


 Total Electron Density at R=0:                                        58.671969

 Guess for atomic kind: N

 Electronic structure
    Total number of core electrons                                          0.00
    Total number of valence electrons                                       7.00
    Total number of electrons                                               7.00
    Multiplicity                                                   not specified
    S      2.00  2.00
    P      3.00


 *******************************************************************************
                  Iteration          Convergence                     Energy [au]
 *******************************************************************************
                          1        0.159909                     -53.340877683251
                          2        0.769146E-01                 -53.353877926770
                          3        0.463278E-03                 -53.358451509292
                          4        0.156014E-03                 -53.358451645833
                          5        0.102251E-04                 -53.358451658533
                          6        0.178265E-08                 -53.358451658590

 Energy components [Hartree]           Total Energy ::          -53.358451658590
                                        Band Energy ::          -29.695765597812
                                     Kinetic Energy ::           52.385975587247
                                   Potential Energy ::         -105.744427245837
                                      Virial (-V/T) ::            2.018563672060
                                        Core Energy ::          -72.851122194822
                                          XC Energy ::           -6.109149652554
                                     Coulomb Energy ::           25.601820188786

 Orbital energies  State     L     Occupation   Energy[a.u.]          Energy[eV]

                       1     0          2.000     -13.845221         -376.747634
                       2     0          2.000      -0.658428          -17.916731

                       1     1          3.000      -0.229489           -6.244716


 Total Electron Density at R=0:                                       126.344533
 Re-scaling the density matrix to get the right number of electrons
                  # Electrons              Trace(P)               Scaling factor
                           12                12.000                        1.000


 SCF WAVEFUNCTION OPTIMIZATION

  Step     Update method      Time    Convergence         Total energy    Change
  ------------------------------------------------------------------------------

  HFX_MEM_INFO| Est. max. program size before HFX [MiB]:                    2158
  HFX_MEM_INFO| Number of cart. primitive ERI's calculated:             82318681
  HFX_MEM_INFO| Number of sph. ERI's calculated:                          230496
  HFX_MEM_INFO| Number of sph. ERI's stored in-core:                      230496
  HFX_MEM_INFO| Number of sph. ERI's stored on disk:                           0
  HFX_MEM_INFO| Number of sph. ERI's calculated on the fly:                    0
  HFX_MEM_INFO| Total memory consumption ERI's RAM [MiB]:                      2
  HFX_MEM_INFO| Whereof max-vals [MiB]:                                        1
  HFX_MEM_INFO| Total compression factor ERI's RAM:                         1.11
  HFX_MEM_INFO| Total memory consumption ERI's disk [MiB]:                     0
  HFX_MEM_INFO| Total compression factor ERI's disk:                        0.00
  HFX_MEM_INFO| Size of density/Fock matrix [MiB]:                             0
  HFX_MEM_INFO| Size of buffers [MiB]:                                         0
  HFX_MEM_INFO| Est. max. program size after HFX  [MiB]:                    2668

     1 NoMix/Diag. 0.10E+00    8.8     0.62081750       -78.7183027578 -7.87E+01
     2 Broy./Diag. 0.10E+00    4.9     0.12543564       -77.7132497953  1.01E+00
     3 Broy./Diag. 0.10E+00    4.9     0.16803160       -77.2120337403  5.01E-01
     4 Broy./Diag. 0.10E+00    4.9     0.27052126       -77.0627557435  1.49E-01
     5 Broy./Diag. 0.10E+00    5.0     0.21705441       -78.0620782735 -9.99E-01
     6 Broy./Diag. 0.10E+00    4.9     0.09635765       -78.4880902337 -4.26E-01
     7 Broy./Diag. 0.10E+00    5.0     0.04297330       -77.9596013756  5.28E-01
     8 Broy./Diag. 0.10E+00    5.1     0.26457324       -77.9850324020 -2.54E-02
     9 Broy./Diag. 0.10E+00    5.3     0.15169357       -78.7280143407 -7.43E-01
    10 Broy./Diag. 0.10E+00    5.3     0.15236741       -79.0230900006 -2.95E-01
    11 Broy./Diag. 0.10E+00    5.4     0.11287268       -79.3277981039 -3.05E-01
    12 Broy./Diag. 0.10E+00    5.4     0.09765676       -79.5147357277 -1.87E-01
    13 Broy./Diag. 0.10E+00    5.4     0.06378521       -79.6662615452 -1.52E-01
    14 Broy./Diag. 0.10E+00    5.3     0.02730613       -79.7225507350 -5.63E-02
    15 Broy./Diag. 0.10E+00    5.3     0.06885717       -79.7736327950 -5.11E-02
    16 Broy./Diag. 0.10E+00    5.3     0.13372707       -79.5618917057  2.12E-01
    17 Broy./Diag. 0.10E+00    5.3     0.14953720       -79.1560222822  4.06E-01
    18 Broy./Diag. 0.10E+00    5.3     0.15265839       -78.8237294273  3.32E-01
    19 Broy./Diag. 0.10E+00    5.3     0.10527529       -78.5805896132  2.43E-01
    20 Broy./Diag. 0.10E+00    5.3     0.06130714       -78.4602013905  1.20E-01
    21 Broy./Diag. 0.10E+00    5.3     0.05782379       -78.3989457460  6.13E-02
    22 Broy./Diag. 0.10E+00    5.3     0.04827045       -78.3095281256  8.94E-02
    23 Broy./Diag. 0.10E+00    5.3     0.02569271       -78.2307569838  7.88E-02
    24 Broy./Diag. 0.10E+00    5.4     0.01622535       -78.1803961794  5.04E-02
    25 Broy./Diag. 0.10E+00    5.3     0.02829494       -78.1351866635  4.52E-02
    26 Broy./Diag. 0.10E+00    5.3     0.02063717       -78.0467854558  8.84E-02
    27 Broy./Diag. 0.10E+00    5.3     0.01517408       -77.9992310563  4.76E-02
    28 Broy./Diag. 0.10E+00    5.4     0.05319294       -78.0543454872 -5.51E-02
    29 Broy./Diag. 0.10E+00    5.3     0.02175367       -78.2105943401 -1.56E-01
    30 Broy./Diag. 0.10E+00    5.3     0.09175302       -78.1874750826  2.31E-02
    31 Broy./Diag. 0.10E+00    5.3     0.05659249       -77.8719094079  3.16E-01
    32 Broy./Diag. 0.10E+00    5.3     0.11736325       -77.8130699349  5.88E-02
    33 Broy./Diag. 0.10E+00    5.4     0.16445160       -78.2385876612 -4.26E-01
    34 Broy./Diag. 0.10E+00    5.3     0.11033109       -78.6767649659 -4.38E-01
    35 Broy./Diag. 0.10E+00    5.3     0.04563681       -78.8581232016 -1.81E-01
    36 Broy./Diag. 0.10E+00    5.3     0.05764290       -78.7031652654  1.55E-01
    37 Broy./Diag. 0.10E+00    5.4     0.04249300       -78.5219613747  1.81E-01
    38 Broy./Diag. 0.10E+00    5.3     0.02185081       -78.4310340003  9.09E-02
    39 Broy./Diag. 0.10E+00    5.3     0.03585239       -78.3890219366  4.20E-02
    40 Broy./Diag. 0.10E+00    5.3     0.02818434       -78.3092022066  7.98E-02
    41 Broy./Diag. 0.10E+00    5.4     0.01069653       -78.2608346678  4.84E-02
    42 Broy./Diag. 0.10E+00    5.3     0.01089568       -78.2587875946  2.05E-03
    43 Broy./Diag. 0.10E+00    5.4     0.00316956       -78.2895393089 -3.08E-02
    44 Broy./Diag. 0.10E+00    5.3     0.00769208       -78.2890804843  4.59E-04
    45 Broy./Diag. 0.10E+00    5.3     0.01856245       -78.2750516792  1.40E-02
    46 Broy./Diag. 0.10E+00    5.4     0.02869099       -78.3321272400 -5.71E-02
    47 Broy./Diag. 0.10E+00    5.3     0.06422102       -78.4177555366 -8.56E-02
    48 Broy./Diag. 0.10E+00    5.4     0.03535193       -78.5604931033 -1.43E-01
    49 Broy./Diag. 0.10E+00    5.4     0.06584646       -78.5688610897 -8.37E-03
    50 Broy./Diag. 0.10E+00    5.3     0.02675149       -78.3759110734  1.93E-01
    51 Broy./Diag. 0.10E+00    5.3     0.01542703       -78.3259372752  5.00E-02
    52 Broy./Diag. 0.10E+00    5.3     0.00384809       -78.3071539464  1.88E-02
    53 Broy./Diag. 0.10E+00    5.3     0.00378566       -78.3094260074 -2.27E-03
    54 Broy./Diag. 0.10E+00    5.4     0.00282938       -78.3085162423  9.10E-04
    55 Broy./Diag. 0.10E+00    5.4     0.00419557       -78.3155556659 -7.04E-03
    56 Broy./Diag. 0.10E+00    5.3     0.01446108       -78.2997251634  1.58E-02
    57 Broy./Diag. 0.10E+00    5.5     0.06350865       -78.3024377648 -2.71E-03
    58 Broy./Diag. 0.10E+00    5.3     0.07809384       -78.4900477942 -1.88E-01
    59 Broy./Diag. 0.10E+00    5.3     0.03762214       -78.6518280649 -1.62E-01
    60 Broy./Diag. 0.10E+00    5.3     0.05786029       -78.6582359036 -6.41E-03
    61 Broy./Diag. 0.10E+00    5.3     0.05010965       -78.4668736341  1.91E-01
    62 Broy./Diag. 0.10E+00    5.3     0.02907694       -78.3602940641  1.07E-01
    63 Broy./Diag. 0.10E+00    5.3     0.02491485       -78.3126875185  4.76E-02
    64 Broy./Diag. 0.10E+00    5.3     0.02759080       -78.2671616449  4.55E-02
    65 Broy./Diag. 0.10E+00    5.4     0.00484199       -78.2181233919  4.90E-02
    66 Broy./Diag. 0.10E+00    5.4     0.00450903       -78.2275451823 -9.42E-03
    67 Broy./Diag. 0.10E+00    5.3     0.01642113       -78.2285144684 -9.69E-04
    68 Broy./Diag. 0.10E+00    5.5     0.01013371       -78.1959454105  3.26E-02
    69 Broy./Diag. 0.10E+00    5.3     0.00730998       -78.2331897893 -3.72E-02
    70 Broy./Diag. 0.10E+00    5.4     0.01421455       -78.2562430903 -2.31E-02
    71 Broy./Diag. 0.10E+00    5.4     0.06334317       -78.3117690600 -5.55E-02
    72 Broy./Diag. 0.10E+00    5.4     0.08122095       -78.4756175422 -1.64E-01
    73 Broy./Diag. 0.10E+00    5.4     0.03216113       -78.6291619907 -1.54E-01
    74 Broy./Diag. 0.10E+00    5.4     0.02760231       -78.6359607700 -6.80E-03
    75 Broy./Diag. 0.10E+00    5.3     0.03525885       -78.5416668570  9.43E-02
    76 Broy./Diag. 0.10E+00    5.3     0.03670243       -78.4517088793  9.00E-02
    77 Broy./Diag. 0.10E+00    5.4     0.02880777       -78.3773909580  7.43E-02
    78 Broy./Diag. 0.10E+00    5.3     0.04427652       -78.3507308718  2.67E-02
    79 Broy./Diag. 0.10E+00    5.3     0.07378770       -78.4974472080 -1.47E-01
    80 Broy./Diag. 0.10E+00    5.4     0.04661109       -78.6649196508 -1.67E-01
    81 Broy./Diag. 0.10E+00    5.4     0.01178781       -78.7329293102 -6.80E-02
    82 Broy./Diag. 0.10E+00    5.3     0.03431607       -78.7294634036  3.47E-03
    83 Broy./Diag. 0.10E+00    5.3     0.03259039       -78.7732591884 -4.38E-02
    84 Broy./Diag. 0.10E+00    5.3     0.05249679       -78.6700037212  1.03E-01
    85 Broy./Diag. 0.10E+00    5.4     0.03465388       -78.5618766401  1.08E-01
    86 Broy./Diag. 0.10E+00    5.3     0.02589541       -78.5126436171  4.92E-02
    87 Broy./Diag. 0.10E+00    5.3     0.02586964       -78.4778299111  3.48E-02
    88 Broy./Diag. 0.10E+00    5.4     0.01643707       -78.4367489510  4.11E-02
    89 Broy./Diag. 0.10E+00    5.5     0.00936040       -78.4195244978  1.72E-02
    90 Broy./Diag. 0.10E+00    5.4     0.01341560       -78.4428312118 -2.33E-02
    91 Broy./Diag. 0.10E+00    5.4     0.01348466       -78.4154123108  2.74E-02
    92 Broy./Diag. 0.10E+00    5.3     0.01023513       -78.3894062494  2.60E-02
    93 Broy./Diag. 0.10E+00    5.3     0.01349067       -78.3713858383  1.80E-02
    94 Broy./Diag. 0.10E+00    5.3     0.01086349       -78.3562646633  1.51E-02
    95 Broy./Diag. 0.10E+00    5.5     0.03250794       -78.4014005124 -4.51E-02
    96 Broy./Diag. 0.10E+00    5.3     0.04329354       -78.4820886301 -8.07E-02
    97 Broy./Diag. 0.10E+00    5.4     0.02975753       -78.5629117465 -8.08E-02
    98 Broy./Diag. 0.10E+00    5.4     0.01132048       -78.5959148672 -3.30E-02
    99 Broy./Diag. 0.10E+00    5.3     0.00988776       -78.5690393960  2.69E-02
   100 Broy./Diag. 0.10E+00    5.4     0.00710530       -78.5415112662  2.75E-02
   101 Broy./Diag. 0.10E+00    5.3     0.00134573       -78.5277235804  1.38E-02
   102 Broy./Diag. 0.10E+00    5.3     0.01784575       -78.5279090743 -1.85E-04
   103 Broy./Diag. 0.10E+00    5.3     0.01325176       -78.4840390339  4.39E-02
   104 Broy./Diag. 0.10E+00    5.5     0.01760729       -78.4560479936  2.80E-02
   105 Broy./Diag. 0.10E+00    5.4     0.01671535       -78.4204972916  3.56E-02
   106 Broy./Diag. 0.10E+00    5.3     0.00708566       -78.3909443751  2.96E-02
   107 Broy./Diag. 0.10E+00    5.3     0.01077037       -78.3831404007  7.80E-03
   108 Broy./Diag. 0.10E+00    5.3     0.01131600       -78.3633876674  1.98E-02
   109 Broy./Diag. 0.10E+00    5.4     0.00951528       -78.3542104831  9.18E-03
   110 Broy./Diag. 0.10E+00    5.4     0.02002347       -78.3903057077 -3.61E-02
   111 Broy./Diag. 0.10E+00    5.3     0.02441214       -78.4430551260 -5.27E-02
   112 Broy./Diag. 0.10E+00    5.4     0.03295247       -78.4935884042 -5.05E-02
   113 Broy./Diag. 0.10E+00    5.5     0.03160242       -78.5568058905 -6.32E-02
   114 Broy./Diag. 0.10E+00    5.4     0.01910642       -78.6103634446 -5.36E-02
   115 Broy./Diag. 0.10E+00    5.3     0.00711720       -78.6320298717 -2.17E-02
   116 Broy./Diag. 0.10E+00    5.3     0.01758432       -78.6100588439  2.20E-02
   117 Broy./Diag. 0.10E+00    5.3     0.01080501       -78.5663275716  4.37E-02
   118 Broy./Diag. 0.10E+00    5.4     0.01754529       -78.5446222011  2.17E-02
   119 Broy./Diag. 0.10E+00    5.3     0.01712663       -78.5081126843  3.65E-02
   120 Broy./Diag. 0.10E+00    5.3     0.01547040       -78.4759337482  3.22E-02
   121 Broy./Diag. 0.10E+00    5.6     0.01108800       -78.4499565731  2.60E-02
   122 Broy./Diag. 0.10E+00    5.3     0.00905079       -78.4338250660  1.61E-02
   123 Broy./Diag. 0.10E+00    5.4     0.00323522       -78.4221414806  1.17E-02
   124 Broy./Diag. 0.10E+00    5.3     0.00609810       -78.4319654752 -9.82E-03
   125 Broy./Diag. 0.10E+00    5.3     0.00887129       -78.4500710164 -1.81E-02
   126 Broy./Diag. 0.10E+00    5.3     0.01497536       -78.4723581467 -2.23E-02
   127 Broy./Diag. 0.10E+00    5.3     0.01704252       -78.5055396338 -3.32E-02
   128 Broy./Diag. 0.10E+00    5.3     0.01654608       -78.5380748744 -3.25E-02
   129 Broy./Diag. 0.10E+00    5.4     0.01474467       -78.5652334115 -2.72E-02
   130 Broy./Diag. 0.10E+00    5.4     0.01352831       -78.5870499151 -2.18E-02
[...]
   418 Broy./Diag. 0.10E+00    5.4     0.12104626       -77.9599655544  1.35E-01
   419 Broy./Diag. 0.10E+00    5.4     0.11577564       -78.2297106468 -2.70E-01
   420 Broy./Diag. 0.10E+00    5.4     0.08446307       -78.4346453228 -2.05E-01
   421 Broy./Diag. 0.10E+00    5.4     0.03358936       -78.5335575080 -9.89E-02
   422 Broy./Diag. 0.10E+00    5.4     0.08433095       -78.5622372086 -2.87E-02
   423 Broy./Diag. 0.10E+00    5.5     0.06979805       -78.7704923699 -2.08E-01
   424 Broy./Diag. 0.10E+00    5.4     0.05917709       -78.9168422950 -1.46E-01
   425 Broy./Diag. 0.10E+00    5.4     0.05125812       -79.0280470356 -1.11E-01
   426 Broy./Diag. 0.10E+00    5.3     0.05645222       -79.1096240936 -8.16E-02
   427 Broy./Diag. 0.10E+00    5.4     0.06903290       -79.1273298724 -1.77E-02
   428 Broy./Diag. 0.10E+00    5.4     0.07276657       -79.0620019043  6.53E-02
   429 Broy./Diag. 0.10E+00    5.4     0.09217849       -78.9979011652  6.41E-02
   430 Broy./Diag. 0.10E+00    5.4     0.10009770       -79.0143166975 -1.64E-02
   431 Broy./Diag. 0.10E+00    5.4     0.08867267       -79.0733157753 -5.90E-02
   432 Broy./Diag. 0.10E+00    5.4     0.09456704       -79.0862458307 -1.29E-02
   433 Broy./Diag. 0.10E+00    5.4     0.08959146       -79.0314032249  5.48E-02
   434 Broy./Diag. 0.10E+00    5.4     0.14028622       -78.9189939515  1.12E-01
   435 Broy./Diag. 0.10E+00    5.5     0.08681911       -78.6206303131  2.98E-01
   436 Broy./Diag. 0.10E+00    5.4     0.04317308       -78.4911111900  1.30E-01
   437 Broy./Diag. 0.10E+00    5.4     0.05054985       -78.5110683702 -2.00E-02
   438 Broy./Diag. 0.10E+00    5.4     0.07307203       -78.5176404630 -6.57E-03
   439 Broy./Diag. 0.10E+00    5.4     0.04461724       -78.7012935219 -1.84E-01
   440 Broy./Diag. 0.10E+00    5.4     0.07842618       -78.7098157297 -8.52E-03
   441 Broy./Diag. 0.10E+00    5.4     0.10375069       -78.5404603165  1.69E-01
   442 Broy./Diag. 0.10E+00    5.4     0.10645212       -78.5894155878 -4.90E-02
   443 Broy./Diag. 0.10E+00    5.4     0.16160940       -78.2222272091  3.67E-01
   444 Broy./Diag. 0.10E+00    5.4     0.34468366       -77.8481649643  3.74E-01
   445 Broy./Diag. 0.10E+00    5.4     0.40759458       -77.7929172940  5.52E-02
   446 Broy./Diag. 0.10E+00    5.3     0.25069534       -79.0119227754 -1.22E+00
   447 Broy./Diag. 0.10E+00    5.4     0.13538892       -79.3658822280 -3.54E-01
   448 Broy./Diag. 0.10E+00    5.3     0.12324101       -79.1197681370  2.46E-01
   449 Broy./Diag. 0.10E+00    5.5     0.18258234       -78.7519495219  3.68E-01
   450 Broy./Diag. 0.10E+00    5.4     0.17298465       -78.3795586574  3.72E-01
   451 Broy./Diag. 0.10E+00    5.4     0.20675661       -78.1498410633  2.30E-01
   452 Broy./Diag. 0.10E+00    5.3     0.04717920       -78.7642381572 -6.14E-01
   453 Broy./Diag. 0.10E+00    5.3     0.09659732       -78.7136038182  5.06E-02
   454 Broy./Diag. 0.10E+00    5.4     0.12505699       -78.9493094299 -2.36E-01
   455 Broy./Diag. 0.10E+00    5.4     0.15956619       -79.2050462266 -2.56E-01
   456 Broy./Diag. 0.10E+00    5.3     0.05703486       -79.4076566779 -2.03E-01
   457 Broy./Diag. 0.10E+00    5.4     0.03126851       -79.4017971716  5.86E-03
   458 Broy./Diag. 0.10E+00    5.4     0.04364208       -79.4517859772 -5.00E-02
   459 Broy./Diag. 0.10E+00    5.4     0.11201557       -79.4138140011  3.80E-02
   460 Broy./Diag. 0.10E+00    5.3     0.25911355       -79.1425034484  2.71E-01
   461 Broy./Diag. 0.10E+00    5.4     0.15867715       -78.7049247059  4.38E-01
   462 Broy./Diag. 0.10E+00    5.4     0.08307219       -78.4648161933  2.40E-01
   463 Broy./Diag. 0.10E+00    5.4     0.28603306       -78.5300384874 -6.52E-02
   464 Broy./Diag. 0.10E+00    5.4     0.33699078       -78.4365639564  9.35E-02
   465 Broy./Diag. 0.10E+00    5.4     0.12540382       -78.2371562503  1.99E-01
   466 Broy./Diag. 0.10E+00    5.4     0.11074776       -78.3416336817 -1.04E-01
   467 Broy./Diag. 0.10E+00    5.4     0.05436982       -78.5280262920 -1.86E-01
   468 Broy./Diag. 0.10E+00    5.4     0.21964784       -78.4894199894  3.86E-02
   469 Broy./Diag. 0.10E+00    5.3     0.17433563       -77.9712898558  5.18E-01
   470 Broy./Diag. 0.10E+00    5.5     0.16428559       -78.5429101135 -5.72E-01
   471 Broy./Diag. 0.10E+00    5.4     0.36442677       -78.9797733944 -4.37E-01
   472 Broy./Diag. 0.10E+00    5.4     0.20920161       -80.1393722679 -1.16E+00
   473 Broy./Diag. 0.10E+00    5.4     0.12104334       -80.4472807643 -3.08E-01
   474 Broy./Diag. 0.10E+00    5.4     0.05166756       -80.6155328210 -1.68E-01
   475 Broy./Diag. 0.10E+00    5.3     0.02015316       -80.7006776321 -8.51E-02
   476 Broy./Diag. 0.10E+00    5.3     0.02047317       -80.6935338914  7.14E-03
   477 Broy./Diag. 0.10E+00    5.4     0.01502298       -80.7276859596 -3.42E-02
   478 Broy./Diag. 0.10E+00    5.3     0.02567968       -80.7711018144 -4.34E-02
   479 Broy./Diag. 0.10E+00    5.4     0.02432054       -80.6449146288  1.26E-01
   480 Broy./Diag. 0.10E+00    5.4     0.09757538       -80.5553652315  8.95E-02
   481 Broy./Diag. 0.10E+00    5.4     0.20581021       -80.7716138205 -2.16E-01
   482 Broy./Diag. 0.10E+00    5.4     0.21737732       -80.3303119163  4.41E-01
   483 Broy./Diag. 0.10E+00    5.3     0.23408627       -79.6693397924  6.61E-01
   484 Broy./Diag. 0.10E+00    5.3     0.18355812       -79.0792945481  5.90E-01
   485 Broy./Diag. 0.10E+00    5.4     0.04859142       -78.7130241889  3.66E-01
   486 Broy./Diag. 0.10E+00    5.4     0.21711125       -78.8908800948 -1.78E-01
   487 Broy./Diag. 0.10E+00    5.4     0.15611787       -79.4624877404 -5.72E-01
   488 Broy./Diag. 0.10E+00    5.4     0.16442840       -79.7589342647 -2.96E-01
   489 Broy./Diag. 0.10E+00    5.4     0.10337235       -80.0368539077 -2.78E-01
   490 Broy./Diag. 0.10E+00    5.4     0.05263165       -80.2009156239 -1.64E-01
   491 Broy./Diag. 0.10E+00    5.3     0.06824712       -80.1175295029  8.34E-02
   492 Broy./Diag. 0.10E+00    5.3     0.04219185       -79.9664028087  1.51E-01
   493 Broy./Diag. 0.10E+00    5.4     0.05943128       -79.9168627724  4.95E-02
   494 Broy./Diag. 0.10E+00    5.4     0.03694156       -80.0431765803 -1.26E-01
   495 Broy./Diag. 0.10E+00    5.4     0.04360252       -80.0437835851 -6.07E-04
   496 Broy./Diag. 0.10E+00    5.4     0.06860268       -79.9143530917  1.29E-01
   497 Broy./Diag. 0.10E+00    5.4     0.05826275       -79.7193152499  1.95E-01
   498 Broy./Diag. 0.10E+00    5.4     0.26909401       -79.5765513069  1.43E-01
   499 Broy./Diag. 0.10E+00    5.5     0.38679766       -78.6633320091  9.13E-01
   500 Broy./Diag. 0.10E+00    5.3     0.11747267       -77.6905068638  9.73E-01

  Leaving inner SCF loop after reaching   500 steps.


  Electronic density on regular grids:         -8.6722100089        3.3277899911
  Core density on regular grids:               12.0000000000        0.0000000000
  Hard and soft densities (Lebedev):          -22.6283432298      -19.3259522929
  Total Rho_soft + Rho1_hard - Rho1_soft      -11.9746009458
  Total charge density (r-space):               0.0253990542
  Total Rho_soft + Rho0_soft (g-space):         0.0253989712

  Overlap energy of the core charge distribution:               0.00001993455823
  Self energy of the core charge distribution:                -64.05191455199152
  Core Hamiltonian energy:                                    -13.15722049231967
  Hartree energy:                                              17.24822245235299
  Exchange-correlation energy:                                 -2.92915143972918
  Hartree-Fock Exchange energy:                                -2.61143002146218

  GAPW| Exc from hard and soft atomic rho1:                    -5.06535741455855
  GAPW| local Eh = 1 center integrals:                         -7.12367533060339

  Total energy:                                               -77.69050686375327

 *******************************************************************************
 *   ___                                                                       *
 *  /   \                                                                      *
 * [ABORT]                                                                     *
 *  \___/     SCF run NOT converged. To continue the calculation regardless,   *
 *    |             please set the keyword IGNORE_CONVERGENCE_FAILURE.         *
 *  O/|                                                                        *
 * /| |                                                                        *
 * / \                                                            qs_scf.F:611 *
 *******************************************************************************


 ===== Routine Calling Stack ===== 

            3 scf_env_do_scf
            2 qs_energies
            1 CP2K

 *******************************************************************************
 *   ___                                                                       *
 *  /   \                                                                      *
 * [ABORT]                                                                     *
 *  \___/     SCF run NOT converged. To continue the calculation regardless,   *
 *    |             please set the keyword IGNORE_CONVERGENCE_FAILURE.         *
 *  O/|                                                                        *
 * /| |                                                                        *
 * / \                                                            qs_scf.F:611 *
 *******************************************************************************


 ===== Routine Calling Stack ===== 

            3 scf_env_do_scf
            2 qs_energies
            1 CP2K

 *******************************************************************************
 *   ___                                                                       *
 *  /   \                                                                      *
 * [ABORT]                                                                     *
 *  \___/     SCF run NOT converged. To continue the calculation regardless,   *
 *    |             please set the keyword IGNORE_CONVERGENCE_FAILURE.         *
 *  O/|                                                                        *
 * /| |                                                                        *
 * / \                                                            qs_scf.F:611 *
 *******************************************************************************


 ===== Routine Calling Stack ===== 

            3 scf_env_do_scf
            2 qs_energies
            1 CP2K

 *******************************************************************************
 *   ___                                                                       *
 *  /   \                                                                      *
 * [ABORT]                                                                     *
 *  \___/     SCF run NOT converged. To continue the calculation regardless,   *
 *    |             please set the keyword IGNORE_CONVERGENCE_FAILURE.         *
 *  O/|                                                                        *
 * /| |                                                                        *
 * / \                                                            qs_scf.F:611 *
 *******************************************************************************


 ===== Routine Calling Stack ===== 

            3 scf_env_do_scf
            2 qs_energies
            1 CP2K

 *******************************************************************************
 *   ___                                                                       *
 *  /   \                                                                      *
 * [ABORT]                                                                     *
 *  \___/     SCF run NOT converged. To continue the calculation regardless,   *
 *    |             please set the keyword IGNORE_CONVERGENCE_FAILURE.         *
 *  O/|                                                                        *
 * /| |                                                                        *
 * / \                                                            qs_scf.F:611 *
 *******************************************************************************


 ===== Routine Calling Stack ===== 

            3 scf_env_do_scf
            2 qs_energies
            1 CP2K

 *******************************************************************************
 *   ___                                                                       *
 *  /   \                                                                      *
 * [ABORT]                                                                     *
 *  \___/     SCF run NOT converged. To continue the calculation regardless,   *
 *    |             please set the keyword IGNORE_CONVERGENCE_FAILURE.         *
 *  O/|                                                                        *
 * /| |                                                                        *
 * / \                                                            qs_scf.F:611 *
 *******************************************************************************


 ===== Routine Calling Stack ===== 

            3 scf_env_do_scf
            2 qs_energies
            1 CP2K

 *******************************************************************************
 *   ___                                                                       *
 *  /   \                                                                      *
 * [ABORT]                                                                     *
 *  \___/     SCF run NOT converged. To continue the calculation regardless,   *
 *    |             please set the keyword IGNORE_CONVERGENCE_FAILURE.         *
 *  O/|                                                                        *
 * /| |                                                                        *
 * / \                                                            qs_scf.F:611 *
 *******************************************************************************


 ===== Routine Calling Stack ===== 

            3 scf_env_do_scf
            2 qs_energies
            1 CP2K

 *******************************************************************************
 *   ___                                                                       *
 *  /   \                                                                      *
 * [ABORT]                                                                     *
 *  \___/     SCF run NOT converged. To continue the calculation regardless,   *
 *    |             please set the keyword IGNORE_CONVERGENCE_FAILURE.         *
 *  O/|                                                                        *
 * /| |                                                                        *
 * / \                                                            qs_scf.F:611 *
 *******************************************************************************


 ===== Routine Calling Stack ===== 

            3 scf_env_do_scf
            2 qs_energies
            1 CP2K

 *******************************************************************************
 *   ___                                                                       *
 *  /   \                                                                      *
 * [ABORT]                                                                     *
 *  \___/     SCF run NOT converged. To continue the calculation regardless,   *
 *    |             please set the keyword IGNORE_CONVERGENCE_FAILURE.         *
 *  O/|                                                                        *
 * /| |                                                                        *
 * / \                                                            qs_scf.F:611 *
 *******************************************************************************


 ===== Routine Calling Stack ===== 

            3 scf_env_do_scf
            2 qs_energies
            1 CP2K

 *******************************************************************************
 *   ___                                                                       *
 *  /   \                                                                      *
 * [ABORT]                                                                     *
 *  \___/     SCF run NOT converged. To continue the calculation regardless,   *
 *    |             please set the keyword IGNORE_CONVERGENCE_FAILURE.         *
 *  O/|                                                                        *
 * /| |                                                                        *
 * / \                                                            qs_scf.F:611 *
 *******************************************************************************


 ===== Routine Calling Stack ===== 

            3 scf_env_do_scf
            2 qs_energies
            1 CP2K

 *******************************************************************************
 *   ___                                                                       *
 *  /   \                                                                      *
 * [ABORT]                                                                     *
 *  \___/     SCF run NOT converged. To continue the calculation regardless,   *
 *    |             please set the keyword IGNORE_CONVERGENCE_FAILURE.         *
 *  O/|                                                                        *
 * /| |                                                                        *
 * / \                                                            qs_scf.F:611 *
 *******************************************************************************


 ===== Routine Calling Stack ===== 

            3 scf_env_do_scf
            2 qs_energies
            1 CP2K

 *******************************************************************************
 *   ___                                                                       *
 *  /   \                                                                      *
 * [ABORT]                                                                     *
 *  \___/     SCF run NOT converged. To continue the calculation regardless,   *
 *    |             please set the keyword IGNORE_CONVERGENCE_FAILURE.         *
 *  O/|                                                                        *
 * /| |                                                                        *
 * / \                                                            qs_scf.F:611 *
 *******************************************************************************


 ===== Routine Calling Stack ===== 

            3 scf_env_do_scf
            2 qs_energies
            1 CP2K

 *******************************************************************************
 *   ___                                                                       *
 *  /   \                                                                      *
 * [ABORT]                                                                     *
 *  \___/     SCF run NOT converged. To continue the calculation regardless,   *
 *    |             please set the keyword IGNORE_CONVERGENCE_FAILURE.         *
 *  O/|                                                                        *
 * /| |                                                                        *
 * / \                                                            qs_scf.F:611 *
 *******************************************************************************


 ===== Routine Calling Stack ===== 

            3 scf_env_do_scf
            2 qs_energies
            1 CP2K
